LAMMPS data file via write_data, version 5 Jun 2019, timestep = 1000000

564 atoms
3 atom types

0.0000000000000000e+00 1.3161440743621954e+01 xlo xhi
0.0000000000000000e+00 8.9076089999999990e+00 ylo yhi
0.0000000000000000e+00 4.8394900000000000e+01 zlo zhi

Masses

1 1
2 16
3 47.86

Atoms # atomic

159 2 3.4778081352055055e+00 1.9598003770336032e+00 4.4688011295724559e+00 2 0 0
151 3 2.2480718383162124e+00 2.1140480825028969e+00 1.2313884539817428e+00 2 0 0
160 2 8.9446866944243797e-01 1.9817626144321616e+00 4.5036966443443962e+00 2 0 0
98 3 2.1910321342261883e+00 3.5250099854193420e+00 4.6295572274079309e+00 2 -1 0
156 2 2.2113693719028169e+00 3.6671053729392683e-01 2.5378691072190320e+00 2 0 0
64 2 4.2961032908220007e+00 1.9164698223651819e+00 1.1693317004686139e+00 1 0 0
11 2 5.4341608214436530e+00 3.4612645429930922e+00 3.2637901329960051e+00 1 -1 0
2 3 5.5272476439172458e+00 3.4661747203956943e+00 1.3820092970374984e+00 1 -1 0
96 2 2.2141140215586805e+00 3.3753267657881256e+00 2.5153055266263977e+00 2 -1 0
67 3 5.6246615851906556e+00 1.9871079979827744e+00 4.5159404058242032e+00 1 0 0
12 2 5.3524613534379064e+00 3.5026721216654333e+00 5.8432393245825285e+00 1 -1 0
158 3 2.2452860992236148e+00 5.6758223455088042e-01 4.3581409491308163e+00 2 0 0
72 2 5.4752529031154005e+00 5.0026712147825514e-01 5.8231574728664883e+00 1 0 0
71 2 5.5214616669094339e+00 4.6742132740338271e-01 3.2834722056451535e+00 1 0 0
62 3 5.5148439326159719e+00 4.5810791667598189e-01 1.0081549828769099e+00 1 0 0
153 2 1.6432839644368083e-01 1.9432673752156264e+00 1.2598171008783876e+00 2 0 0
95 2 2.1463592703105867e+00 3.4833164212793211e+00 3.0962148031491665e-02 2 -1 0
83 2 5.4941428584992344e+00 3.6158744642148150e-01 9.7321508945755681e+00 1 0 0
107 2 1.9829362721252857e+00 3.5762075677848646e+00 6.6011111298837424e+00 2 -1 0
110 3 2.1444462136089570e+00 3.3240199854489663e+00 1.0969701836577217e+01 2 -1 0
108 2 2.1566229363684073e+00 3.3995843284082556e+00 9.1042948895358329e+00 2 -1 0
14 3 5.3991501515859825e+00 3.4856124140721021e+00 7.7502799455803979e+00 1 -1 0
23 2 5.5269110679828559e+00 3.3646368061300986e+00 9.8489149262790647e+00 1 -1 0
76 2 4.1257692220540898e+00 2.1040814153018466e+00 7.7791258239072762e+00 1 0 0
79 3 5.6250908278812863e+00 1.8935310512617323e+00 1.0933722757835325e+01 1 0 0
172 2 9.9997974302679526e-01 1.9286512325110070e+00 1.1227170849716762e+01 2 0 0
163 3 2.0661425115264871e+00 1.9547615486557319e+00 7.7055471146630854e+00 2 0 0
171 2 3.5503744266757042e+00 2.0277504998860660e+00 1.1097670118970349e+01 2 0 0
74 3 5.3312509571412239e+00 6.0923975657488671e-01 7.7886688472820111e+00 1 0 0
167 2 2.1523904799927243e+00 5.6723431632473953e-01 6.5026663256600408e+00 2 0 0
168 2 2.1799442223285954e+00 5.6391477729712680e-01 9.1998356269544299e+00 2 0 0
170 3 2.3835412345416431e+00 4.6059306817121942e-01 1.1168711577455197e+01 2 0 0
165 2 4.9759076656201842e-02 1.8820887641775397e+00 7.8155286406350628e+00 2 0 0
119 2 2.1010394624612267e+00 3.3948774372209169e+00 1.3110102809687563e+01 2 -1 0
180 2 2.1993790503576949e+00 3.0986545315900010e-01 1.5863087889590661e+01 2 0 0
177 2 2.3805932395404270e-01 2.0255772526425795e+00 1.4440293163701520e+01 2 0 0
256 1 1.4203658867410187e+00 3.7262865940150838e+00 1.7819450942641108e+01 -5 2 0
179 2 2.2996485468049248e+00 3.7263277715707238e-01 1.3089238529487028e+01 2 0 0
26 3 5.4933605236721954e+00 3.3276530848836066e+00 1.4190115070333533e+01 1 -1 0
24 2 5.5046915881388365e+00 3.3386627161263660e+00 1.2362173841110961e+01 1 -1 0
120 2 2.2358915802672037e+00 3.4143806936662604e+00 1.5605140041476371e+01 2 -1 0
241 1 4.2367496812526788e+00 3.1037298107347997e+00 1.6797828847231870e+01 -6 -2 0
276 2 5.2060782207878145e+00 3.1344806682700335e+00 1.6470959253124860e+01 -8 1 0
175 3 2.1220828923178323e+00 2.0455781111144740e+00 1.4357879989218102e+01 2 0 0
88 2 4.2980458143380300e+00 1.9289108116570859e+00 1.4450062068415669e+01 1 0 0
86 3 5.6161235673248431e+00 4.3768111915670982e-01 1.4146746217525761e+01 1 0 0
537 2 5.7058459246059385e+00 3.0338091520910759e-01 1.6435266583386120e+01 -3 -4 0
84 2 5.6785443414088830e+00 4.4678165504167178e-01 1.2348067101227793e+01 1 0 0
274 1 6.5232076719223731e+00 4.9942620472279936e-01 1.6944238057301405e+01 -8 1 0
397 1 1.2960625188355697e+00 5.7550941273813483e-01 1.5990882819679509e+01 3 4 0
275 1 5.6296049254214626e+00 3.9421886993250199e+00 1.6879296444847256e+01 -8 1 0
269 1 4.6553030577903431e+00 1.2318966724550834e-01 1.7755282313470083e+01 -4 -4 0
421 1 3.1281246795485522e+00 1.9849269501884770e-01 1.7530993355514507e+01 -1 -1 0
258 2 1.0578594528589043e+00 4.0912090383759958e+00 1.8636806475230909e+01 -5 2 0
354 2 5.0364967818384665e+00 2.0325141793420052e+00 2.2230825330418277e+01 -4 2 0
251 1 2.9800089566080112e+00 2.8679428903750828e+00 2.0547017053075177e+01 2 10 0
493 1 6.2648553897526584e+00 3.3214990633086301e+00 2.0634387671458047e+01 3 1 0
216 2 2.1679239794414826e+00 2.5454313727656652e+00 2.2392087537332952e+01 -1 -2 0
214 1 1.4453984519681558e+00 1.9843491849699868e+00 2.2755936690659244e+01 -1 -2 0
257 1 1.7938944605388703e+00 3.7185029888787060e+00 1.9169507851080954e+01 -5 2 0
353 1 4.0464784581185578e+00 2.3277584585442055e+00 2.2340046989161806e+01 -4 2 0
370 1 3.3327001012206945e+00 2.1620012015067385e+00 1.9307943017806917e+01 -5 -1 0
369 2 6.3070004176958925e+00 2.8845177579517189e-01 2.0177833222593183e+01 2 22 0
215 1 2.1096248790568786e+00 3.3824710285774975e+00 2.2959902111541496e+01 -1 -2 0
252 2 3.2737501219657394e+00 3.0649753095712167e+00 1.9662962027269291e+01 2 10 0
254 1 4.2430492961955507e-01 2.9570969622541430e+00 2.0090898463476982e+01 -10 -6 0
352 1 5.5815114800740462e+00 2.7315242914731286e+00 2.2745852232727927e+01 -4 2 0
375 2 4.6783090827534957e-01 8.4844031308177714e-01 2.4156345874659412e+01 -12 8 0
298 1 5.6666238135423175e+00 5.5587835042862543e-01 2.3173214958373329e+01 -3 5 0
557 1 5.2301648856632477e-01 3.1019140873873702e-01 2.0128808622341285e+01 -2 2 0
357 2 3.8073679964658713e+00 1.9202796040614556e-01 1.8284881980636971e+01 1 -2 0
368 1 5.4502014584796363e+00 2.7342143745753628e-01 2.0730193836040876e+01 2 22 0
255 2 1.3434458986745668e-02 2.1513232738459345e+00 2.0516801235881164e+01 -10 -6 0
485 1 1.4551095101838007e+00 1.6791064383121186e+00 2.7303694619520201e+01 -2 -7 0
200 1 5.3499249215991194e+00 1.2340036257432725e+00 2.5959267654373978e+01 -1 1 0
484 1 1.6026106848814532e+00 5.6241370970334013e-02 2.7262694746201241e+01 -2 -7 0
199 1 3.7073862378380102e+00 1.3778710162834837e+00 2.5978141840751999e+01 -1 1 0
201 2 4.5025432111399111e+00 1.4857693395000668e+00 2.5422385239737384e+01 -1 1 0
463 1 4.6082564006315678e+00 2.0733257110820582e+00 2.9538982884705458e+01 2 1 0
486 2 2.0325932580891832e+00 9.2170162350197515e-01 2.7013330109181080e+01 -2 -7 0
465 2 3.9156409720897276e+00 2.7956784254160589e+00 2.9452130913070256e+01 2 1 0
374 1 8.9929717777445883e-01 1.1712106003299434e+00 2.5022603510404018e+01 -12 8 0
331 1 2.7691432609350728e+00 3.4323768868802209e+00 2.8392933872219420e+01 -7 4 0
344 1 2.9057670580778688e-01 3.7206715992583721e+00 2.6968753513620289e+01 1 2 0
333 2 2.3407834015350319e+00 3.8453825685537715e+00 2.7613428420929864e+01 -7 4 0
400 1 2.0802034960399740e+00 4.3904113408787966e+00 2.4670770075390372e+01 -1 -2 0
320 1 4.2751979483662881e+00 3.1992014470449144e+00 2.5432465238696494e+01 -4 2 0
181 1 5.0869715237455662e+00 4.0691619952415454e+00 2.8513368573977019e+01 -6 -1 0
321 2 3.7624267519093886e+00 4.0493646691819292e+00 2.5315483607661175e+01 -4 2 0
332 1 2.9590353690149027e+00 3.8912275180575473e+00 2.6868653517456760e+01 -7 4 0
522 2 5.3305008235697935e+00 2.8661712822011359e-01 2.9636017421428036e+01 -3 -4 0
314 1 6.8634334613636627e-01 7.5777665231113633e-01 3.3388891310250266e+01 -5 3 0
438 2 4.2355031216646406e+00 3.9875550718453803e+00 3.5715722483489024e+01 1 -2 0
417 2 1.2452841566132971e+00 3.4344447737846808e+00 3.5042168918675522e+01 -2 -5 0
229 1 2.1698886352942792e+00 1.2737968650377114e+00 3.1621355730397699e+01 3 -1 0
348 2 5.0486206988959550e+00 1.3262937119228664e+00 3.3958207524955228e+01 -4 8 0
305 1 8.2158490577973509e-01 3.9385785476803186e+00 3.4317152038111040e+01 -1 -5 0
561 2 3.7527869634632607e+00 3.4999376047741499e+00 3.2505663124072306e+01 -7 -7 0
346 1 4.9514354084439427e+00 1.1468409914659146e+00 3.4939997206417694e+01 -4 8 0
345 2 1.3715023618896311e+00 1.7218982551363287e+00 3.1913769539826827e+01 3 0 0
419 1 9.3760746080942348e-01 1.9747152975382749e+00 3.1034410941420461e+01 0 13 0
423 2 6.7069874996167922e-01 7.9540235351849442e-01 3.4424922519320134e+01 -2 4 0
415 1 1.0118252978368734e+00 2.4773686670691775e+00 3.4993371976116961e+01 -2 -5 0
464 1 3.6535471106521507e+00 3.0362027869295796e+00 3.0342640204467628e+01 2 1 0
347 1 4.5664174116035392e+00 2.1384373432662342e+00 3.3835527205840634e+01 -4 8 0
560 1 2.9148270675436523e+00 3.0393087744850349e+00 3.2618018588896668e+01 -7 -7 0
356 1 3.3347227332123510e+00 3.6640967411089216e+00 3.5760889221846710e+01 -3 -4 0
271 1 4.0972281154908066e+00 4.5796872202081795e-01 3.2466117861291870e+01 -5 3 0
520 1 4.7608037606880691e+00 4.3472722937632449e-02 3.0383310049967921e+01 -3 -4 0
273 2 3.5840885373207052e+00 4.8624791594569672e-02 3.1771541852324646e+01 -5 3 0
559 1 3.4915133255537829e+00 4.4332827297048309e+00 3.2663627077050855e+01 -7 -7 0
405 2 6.0374810757332229e+00 6.3897576066614870e-01 4.1160363133469922e+01 7 6 0
226 1 5.4621519934496101e+00 1.8965569877339803e+00 3.8106621692490798e+01 -11 -12 0
513 2 2.3469768217059098e-01 1.2067639305829068e+00 3.9776772038519702e+01 2 -3 0
211 1 4.9037267482208158e+00 4.1293152373927029e+00 4.1270614701326700e+01 -10 6 0
212 1 6.1334251634860548e+00 4.1076813054315382e+00 4.2167750933146202e+01 -10 6 0
398 1 9.7822864261889897e-01 7.8523878324309626e-01 3.9327563085129967e+01 2 -3 0
228 2 4.6359221222990241e+00 1.8270034504966628e+00 3.8669938469687175e+01 -11 -12 0
227 1 5.1258504553614204e+00 1.6051934053755745e+00 3.9542432790631551e+01 -11 -12 0
549 2 7.2098539539345208e-01 3.2273895468644005e+00 4.1914976881376631e+01 -8 -3 0
474 2 3.1141754040022507e+00 3.7499304325426763e+00 4.0585950425397527e+01 -6 4 0
515 1 2.1670138542068127e+00 3.5742309248523942e+00 4.0930779814549162e+01 -4 4 0
248 1 3.3474004009633624e+00 3.1442022581309375e+00 3.9863255600761043e+01 -1 3 0
223 1 1.0339014552439068e+00 4.3486483825996016e+00 3.6471697037199718e+01 -4 -2 0
547 1 4.1284938613895755e-01 2.5067537250457805e+00 4.1268650147238667e+01 -8 -3 0
514 1 4.5331449240039738e+00 5.9927159276239894e-01 4.7128474160414157e+01 -7 10 0
473 1 6.0847731007039823e+00 2.9339660448271960e+00 4.4039558183067562e+01 -5 -1 0
482 1 2.0442144688907127e+00 3.0434330950147315e+00 4.4534193703069022e+01 5 -4 0
231 2 1.0654073677079543e+00 2.7013879230594529e-01 4.5928867554741068e+01 2 0 0
481 1 2.8544560206109821e+00 3.6991926568110043e+00 4.6759055466815788e+01 5 4 0
434 1 3.7774844016854296e+00 2.0092405902360588e+00 4.4017823581282826e+01 -1 5 0
268 1 5.7199941880611647e+00 2.4348950083417686e+00 4.7371137996445860e+01 -4 2 0
444 2 5.7445651591127360e+00 3.3908415318003775e+00 4.7513410852124416e+01 3 -2 0
435 2 4.7558377778648806e+00 1.7543528261644645e+00 4.3911357614302297e+01 -1 5 0
204 2 5.3756399143246449e+00 3.2859285873140043e-01 4.7453091609233887e+01 -1 5 0
202 1 4.9232886131155507e+00 3.8138785178905681e+00 4.7080744801415094e+01 -1 5 0
496 1 1.0501017479308690e+00 1.1059940498358047e+00 4.5339586797106563e+01 2 -11 0
399 2 3.4416604188628899e+00 3.7970114570015370e+00 4.5934568630104657e+01 3 4 0
233 1 1.6138743216893943e+00 2.4802555162866451e+00 4.3266533591854788e+01 6 -11 0
281 1 1.7053361947557066e+00 4.2010575947565548e-01 4.7632621963774888e+01 -1 10 0
234 2 1.9646848385251401e+00 2.1946749806910169e+00 4.4083693230448567e+01 6 -11 0
433 1 4.9460063452207512e+00 1.4908873649829018e+00 4.2939152187065396e+01 -1 5 0
155 2 2.3735707350970130e+00 4.2887940022835702e-01 4.8336031559168504e+01 2 0 -1
41 2 5.5966064508974434e+00 6.4909949127686755e+00 3.2358956528383591e+00 1 -1 0
42 2 5.3809139746272328e+00 6.3439577556955644e+00 5.7115079820090822e+00 1 -1 0
129 2 3.4488312695683785e+00 7.9105051103590602e+00 4.5785198482142437e+00 2 -1 0
32 3 5.6181661465390293e+00 6.3405290239393803e+00 1.3629143762564493e+00 1 -1 0
130 2 8.9426302372879007e-01 7.9223458804987299e+00 4.5887893862650033e+00 2 -1 0
37 3 5.2426844403191755e+00 7.9124350309778020e+00 4.5213456427363727e+00 1 -1 0
7 3 5.6956434097531856e+00 5.0080070407073496e+00 4.5388120475481548e+00 1 -1 0
34 2 4.3230654057698858e+00 7.8692220649604128e+00 1.1464989897903308e+00 1 -1 0
126 2 2.2392580196551890e+00 6.4995365711185151e+00 2.6009268292280563e+00 2 -1 0
128 3 2.0527680688675560e+00 6.4320922772691196e+00 4.4901891508781260e+00 2 -1 0
121 3 2.2732759113082559e+00 7.8618928192446180e+00 1.2623906309158184e+00 2 -1 0
100 2 8.1944875473017798e-01 4.9980214639088425e+00 4.7324398904558427e+00 2 -1 0
99 2 3.3143664103970898e+00 4.9071369270978042e+00 4.5424661749428479e+00 2 -1 0
91 3 2.1694452951279124e+00 5.0017862700216682e+00 1.2237897585151671e+00 2 -1 0
4 2 4.2438626774961321e+00 4.9771603156083604e+00 1.1403602167416924e+00 1 -1 0
123 2 2.1870228337360145e-01 8.0760294734004017e+00 1.2465175925011645e+00 2 -1 0
93 2 2.2469119676858523e-01 5.0178392728979002e+00 1.1506719017251645e+00 2 -1 0
125 2 2.1715101267723074e+00 6.3247053974486098e+00 7.2802572344538394e-02 2 -1 0
46 2 4.2565694356328088e+00 7.9007110011386406e+00 7.9807543879155380e+00 1 -1 0
112 2 9.4557778693391104e-01 4.9970250883497798e+00 1.1011137282211200e+01 2 -1 0
19 3 5.4593440542683274e+00 4.8200950391761808e+00 1.1111954869215751e+01 1 -1 0
141 2 3.5808987400540566e+00 7.8562192071480501e+00 1.1109405166809772e+01 2 -1 0
53 2 5.6877876814646342e+00 6.3249827197421160e+00 9.9018785160371063e+00 1 -1 0
137 2 2.1809793359557346e+00 6.4361629801207521e+00 6.6434342594978846e+00 2 -1 0
49 3 5.5245767594268935e+00 7.8060905810426426e+00 1.1114677027279908e+01 1 -1 0
140 3 2.2774134278568789e+00 6.3033813619145036e+00 1.1140640914140331e+01 2 -1 0
142 2 1.0466967218950844e+00 7.9374646391004786e+00 1.1114638741741432e+01 2 -1 0
138 2 2.3141588711670025e+00 6.4335056864132740e+00 9.1505997200799385e+00 2 -1 0
133 3 2.3009663389370583e+00 7.9165521517786779e+00 7.9153372647611100e+00 2 -1 0
44 3 5.6142506993052530e+00 6.4352792137870649e+00 7.8198982222526698e+00 1 -1 0
16 2 4.1882132881174039e+00 4.9187087664881002e+00 7.8671465204931952e+00 1 -1 0
103 3 2.1670169709624973e+00 5.0292921314212009e+00 7.8197721317115070e+00 2 -1 0
111 2 3.5540177335704977e+00 4.8664724958224204e+00 1.1104543500393087e+01 2 -1 0
135 2 1.8158006838025481e-01 7.8691255500105433e+00 7.8795919073135536e+00 2 -1 0
105 2 1.3253104615602221e-01 4.9839773873216302e+00 7.9271304889785457e+00 2 -1 0
529 1 1.6812588960672803e+00 6.4265385383775699e+00 1.7017686970681378e+01 -10 -2 0
28 2 4.2212541124009508e+00 4.8637916559378009e+00 1.4251012500702371e+01 1 -1 0
54 2 5.5004715312022796e+00 6.4070955028240633e+00 1.2396548919029216e+01 1 -1 0
149 2 2.1349346634499651e+00 6.3832408968222873e+00 1.3057703678238978e+01 2 -1 0
242 1 6.2850302642691167e+00 5.9807420317968045e+00 1.6747032788230495e+01 -6 -3 0
115 3 2.3085821866809466e+00 4.8694871219687927e+00 1.4542351534375451e+01 2 -1 0
145 3 2.2810496169286565e+00 7.7998538840066658e+00 1.4309452059654429e+01 2 -1 0
58 2 4.2785293686998207e+00 7.8836122052156963e+00 1.4380739224657248e+01 1 -1 0
56 3 5.4649306609010262e+00 6.3511757891417098e+00 1.4349448483927267e+01 1 -1 0
243 2 5.5646567321104206e+00 6.4201944158439330e+00 1.6243765627626804e+01 -6 -3 0
150 2 2.3338767199400681e+00 6.3005192485391905e+00 1.5570700037717033e+01 2 -1 0
117 2 2.2920814795229424e-01 5.0525688865143890e+00 1.4489065141363847e+01 2 -1 0
536 1 5.7443737072592578e+00 8.2152755907405233e+00 1.6332582733253901e+01 -3 -5 0
147 2 2.9703194607529404e-01 7.9124475028968924e+00 1.4448110638750954e+01 2 -1 0
531 2 1.2467189503197866e+00 6.6169499692920679e+00 1.7905708561584564e+01 -10 -2 0
249 2 6.3452212938123962e+00 8.7472254685564668e+00 2.3220971078231766e+01 1 -3 0
530 1 1.1715093230465010e+00 5.6899134331745245e+00 1.8526730317767395e+01 -10 -2 0
497 1 7.1576654027681952e-01 8.1108908675161047e+00 1.9002465768818887e+01 -1 0 0
240 2 2.1636228848690062e+00 7.2897406827101046e+00 2.3453640164728675e+01 -2 0 0
285 2 4.3007088647231848e+00 6.6012913874974908e+00 1.9176851946709267e+01 -10 4 0
338 1 5.1758470333480204e+00 5.5032183617937198e+00 2.0516411153058375e+01 -5 4 0
411 2 2.6603918681733263e+00 5.6754349125227739e+00 2.1319001150468129e+01 0 12 0
284 1 4.7120649381837714e+00 6.3367203176689850e+00 1.8294393159925118e+01 -10 4 0
409 1 2.6644573233154576e+00 6.3557693333288618e+00 2.2039343136960273e+01 0 12 0
410 1 2.7504498778796238e+00 6.1242376970662784e+00 2.0460098677558289e+01 0 12 0
558 2 2.3089086760681163e-01 8.3600092242046653e+00 1.9823336287432902e+01 -2 1 0
339 2 5.5188101403855381e+00 4.9034961994479884e+00 2.1248965254543645e+01 -5 4 0
238 1 1.8800287494647117e+00 8.2394338872170039e+00 2.3537016897017793e+01 -2 0 0
283 1 3.9035596266925170e+00 7.5163863825875108e+00 1.8979610043965859e+01 -10 4 0
239 1 2.8788688149902910e+00 7.3090527871003754e+00 2.4141145783586694e+01 -2 0 0
401 1 1.5311008288383554e+00 5.4954158510648128e+00 2.3660801747500905e+01 -1 -2 0
308 1 8.6531909414306685e-01 5.5448873563457317e+00 2.0912756659454526e+01 1 -10 0
337 1 4.7324694111556527e+00 4.9212233570926198e+00 2.1838525367827170e+01 -5 4 0
402 2 1.4528396747137537e+00 4.5305666753142848e+00 2.3971744361012473e+01 -1 -2 0
367 1 6.5174415637630245e+00 8.6429537410635220e+00 1.9428291090483349e+01 2 21 0
304 1 3.7102896916571364e+00 7.0306933980854307e+00 2.8249541919421937e+01 4 7 0
183 2 5.7728375869591213e+00 4.6692526952624913e+00 2.8114004055422473e+01 -6 -1 0
519 2 2.1475590246721894e+00 6.3578051661090536e+00 2.9048208937835806e+01 -2 -3 0
218 1 5.0042925041810440e+00 7.8421007790835358e+00 2.8242639744466118e+01 2 9 0
517 1 2.1669416140594326e+00 5.5655519492533871e+00 2.8525804678894790e+01 -2 -3 0
303 2 4.5201430364530459e+00 7.0613427738318233e+00 2.4910531540079425e+01 -7 -5 0
182 1 5.3645178267343185e+00 5.5785416062908055e+00 2.7928243459801081e+01 -6 -1 0
302 1 4.7716200715680257e+00 7.2806191615126306e+00 2.5879181242417552e+01 -7 -5 0
518 1 1.3073015501278478e+00 6.8172990106861429e+00 2.8774758814245622e+01 -2 -3 0
301 1 5.2205958074878662e+00 7.4165484686960896e+00 2.4304001876080310e+01 -7 -5 0
219 2 4.5149796101163160e+00 7.1637137351761693e+00 2.7722563940219544e+01 2 9 0
319 1 4.3053623990747072e+00 4.7575671635361694e+00 2.4911466181890496e+01 -4 2 0
193 1 6.2043548777164501e+00 8.8658791436761977e+00 2.9901402693245338e+01 -2 -5 0
244 1 1.7070457339623355e+00 8.2075632606985014e+00 3.4941906977054181e+01 -4 10 0
328 1 1.5725078787515372e+00 6.3998571871689407e+00 3.2533908289481694e+01 -6 -6 0
265 1 4.2325442617258444e+00 5.4604161065170169e+00 3.4634886615292430e+01 -7 7 0
351 2 4.5274302624886076e-02 5.4005732247277365e+00 3.3249763117541725e+01 0 5 0
330 2 2.3588047383823239e+00 6.5044903209042770e+00 3.1984748892629305e+01 -6 -6 0
329 1 2.0620057142781825e+00 6.4862503023798963e+00 3.1059838453120918e+01 -6 -6 0
454 1 5.3904150759291367e+00 7.8628365431731115e+00 3.5644098008770854e+01 2 -8 0
236 1 3.1869379440153360e+00 8.0928215065055102e+00 3.2012173297781608e+01 -4 12 0
267 2 4.5767127295084125e+00 6.2097719569382992e+00 3.4171829805573623e+01 -7 7 0
245 1 2.4689431666214463e+00 7.7170654410193924e+00 3.6187510016722705e+01 -4 10 0
246 2 2.1816942770905503e+00 7.4121907550787896e+00 3.5293574512600699e+01 -4 10 0
266 1 3.7970822365574537e+00 6.8227354888719418e+00 3.4045576685746390e+01 -7 7 0
263 1 5.8416864897306873e+00 4.9275900404903767e+00 3.2956640692545392e+01 -2 9 0
224 1 1.4044286080382333e+00 5.8249321676651693e+00 3.6226793897103967e+01 -4 -2 0
456 2 5.2091985323275027e+00 8.6230165881573750e+00 3.6278839307106828e+01 2 -8 0
187 1 2.3647436326239788e+00 5.4853089938967781e+00 3.8267272376643731e+01 2 3 0
198 2 4.8184254053447386e+00 7.3593162398249170e+00 4.2128137321888175e+01 -7 4 0
447 2 5.5871218243426979e+00 6.1229374561560199e+00 3.7664588439523150e+01 3 -5 0
445 1 5.0189107051701631e+00 5.7717488782669930e+00 3.8395652802158097e+01 3 -5 0
404 1 5.5704343854252567e+00 8.7015171494106465e+00 4.1372052333515917e+01 7 5 0
196 1 3.8829267496772326e+00 7.1946529747211789e+00 4.1797148255201471e+01 -7 4 0
225 2 1.1216911241582854e+00 5.1955890680020227e+00 3.6968836930341183e+01 -4 -2 0
197 1 5.3066873726774437e+00 6.5641767849385122e+00 4.1803247519359644e+01 -7 4 0
491 1 1.1960452465139333e+00 6.7057344097119973e+00 4.1793693611419414e+01 2 -2 0
466 1 2.6668874256125878e+00 7.4598439886832617e+00 3.9132608706957534e+01 -6 10 0
188 1 3.1947211512094360e+00 5.3614026737872562e+00 3.9622705268874093e+01 2 3 0
189 2 3.0635911449301472e+00 5.9246482954847144e+00 3.8773050236317523e+01 2 3 0
455 1 5.1046172584264848e+00 8.0999779761799822e+00 3.7068512454212467e+01 2 -8 0
446 1 6.2745841569890715e+00 6.6763759446025626e+00 3.8115002906021502e+01 3 -5 0
315 2 2.1241432630112502e+00 6.4234965775325534e+00 4.2152993375909176e+01 -4 0 0
468 2 2.4572060213745188e+00 8.4587144642131182e+00 3.9149836522306536e+01 -6 10 0
191 1 4.3909017234352312e+00 4.4670142466360172e+00 3.6543129907233087e+01 -1 4 0
467 1 3.3056038551400753e+00 8.8247622947043372e+00 3.9312444845003810e+01 -6 10 0
213 2 5.8255443671795026e+00 4.4641315764497191e+00 4.1317278180676020e+01 -10 6 0
313 1 2.0755880272114036e+00 5.4678873779021782e+00 4.2042462310082357e+01 -4 0 0
387 2 5.8170260734109815e+00 6.2658015533067486e+00 4.7491263697271172e+01 -6 9 0
207 2 1.1005688199870944e-01 5.1334920062856177e+00 4.5811613779753230e+01 3 -12 0
443 1 9.5772478104630643e-01 5.6228302648316077e+00 4.5698377430359862e+01 4 -2 0
383 1 2.6953237004419930e+00 6.7590658230162646e+00 4.3984815053106296e+01 -3 8 0
206 1 5.9483613857852431e+00 7.1705918011122387e+00 4.7237132585862454e+01 0 -15 0
414 2 5.5554229909848232e+00 7.9385391564415153e+00 4.4749043128358522e+01 2 0 0
412 1 5.4544989054283057e+00 8.8787176885880079e+00 4.4598246434206359e+01 2 0 0
413 1 5.2374747107736743e+00 7.5571146089417702e+00 4.3891014607236364e+01 2 0 0
384 2 2.6700842352382534e+00 6.8013940703659124e+00 4.4972381717355326e+01 -3 8 0
382 1 3.5098373088836792e+00 7.1303512090405663e+00 4.5285505549591896e+01 -3 8 0
247 1 3.4773946603045589e+00 4.7575301313141063e+00 4.5718119616526657e+01 4 4 0
505 1 1.6665983374011379e+00 8.5342025931740171e+00 4.5518428877904171e+01 -1 2 0
272 1 6.5214108333253504e+00 5.7169045217170718e+00 4.7052376038021940e+01 -4 1 0
101 2 1.2154514457611361e+01 3.4949192184906823e+00 3.3343029602622005e+00 1 -1 0
69 2 1.0130933131874491e+01 1.9584545513440390e+00 4.5112433040597919e+00 1 0 0
161 2 1.2047944669529073e+01 4.3654006807818058e-01 3.2660712628519444e+00 1 0 0
8 3 8.9139695501714229e+00 3.3870879387190813e+00 4.6203126070942249e+00 1 -1 0
6 2 8.6729502874790576e+00 3.5050207470176891e+00 2.5370087548730345e+00 1 -1 0
70 2 7.5396181333198209e+00 2.0325134916316756e+00 4.5229503839781628e+00 1 0 0
157 3 1.2152039842423768e+01 1.9448252421598884e+00 4.7031618066908445e+00 1 0 0
92 3 1.2004414531207505e+01 3.4092572684096885e+00 1.5609534158652087e+00 1 -1 0
154 2 1.0693358653298528e+01 2.0571869740434647e+00 1.5300597648615353e+00 1 0 0
102 2 1.1987146346484213e+01 3.4621542960317639e+00 5.9190124540681648e+00 1 -1 0
61 3 8.8381314960987307e+00 2.3710552279033434e+00 1.1512653755822710e+00 1 0 0
68 3 8.7543756160354445e+00 5.1945416513778098e-01 4.2378705837667390e+00 1 0 0
162 2 1.2040063980621204e+01 4.7272330422373632e-01 5.9217687445487908e+00 1 0 0
152 3 1.2110753998341988e+01 5.5241574836826857e-01 1.5214013610782751e+00 1 0 0
66 2 8.6639936620764146e+00 6.8490617908947604e-01 2.4392854959523906e+00 1 0 0
63 2 6.8123678921992381e+00 2.1275143028951633e+00 1.1539147324924490e+00 1 0 0
5 2 8.8887542630587131e+00 3.6606526746363270e+00 5.4213979700229184e-03 1 -1 0
82 2 7.4816679843143623e+00 1.8993494850533674e+00 1.1138341151373208e+01 1 0 0
113 2 1.2161319235452014e+01 3.3959598070947261e+00 9.9404712348444253e+00 1 -1 0
80 3 8.9120361264129571e+00 1.9969387921746753e-01 1.1262270375628599e+01 1 0 0
166 2 1.0681302076958859e+01 1.9610491453904735e+00 7.8838469122803998e+00 1 0 0
81 2 1.0152440722640472e+01 1.9685089726896068e+00 1.1215461301445185e+01 1 0 0
20 3 8.7773959057680511e+00 3.2412839629613983e+00 1.1214818313004766e+01 1 -1 0
169 3 1.2118681221310144e+01 2.0156522138124680e+00 1.1117597116092853e+01 1 0 0
17 2 8.8730125343199866e+00 3.5562780381697796e+00 6.5520019598008652e+00 1 -1 0
18 2 8.7164054333627714e+00 3.4771357010187973e+00 9.2124980028833487e+00 1 -1 0
104 3 1.1876875282122871e+01 3.2662733317772754e+00 7.8270004384603391e+00 1 -1 0
73 3 8.6731875744381117e+00 1.9593228885044320e+00 8.0009485554592761e+00 1 0 0
78 2 8.7404477967611083e+00 5.0949511310308315e-01 9.1847032123187109e+00 1 0 0
77 2 8.7071354336761875e+00 5.6063283045030043e-01 6.6202728928933086e+00 1 0 0
173 2 1.2127504375973816e+01 4.0871053628965437e-01 9.8595577825298530e+00 1 0 0
164 3 1.2043912546535690e+01 2.7024472001190231e-01 7.8616377773893298e+00 1 0 0
75 2 6.6886418375411658e+00 1.9297929321192648e+00 7.8511456689735803e+00 1 0 0
174 2 1.2122912406587808e+01 4.3314219745714788e-01 1.2403264504031224e+01 1 0 0
408 2 1.2371608555284691e+01 6.4423294936203435e-01 1.6530745500252678e+01 -1 3 0
30 2 8.7696181458848379e+00 3.4643540755069404e+00 1.5657936603218529e+01 1 -1 0
178 2 1.0826869244236679e+01 2.0464515320015715e+00 1.4454665705408246e+01 1 0 0
89 2 8.6949435364146499e+00 4.4240485129344159e-01 1.3125386116675832e+01 1 0 0
176 3 1.2074254101457239e+01 4.0879536328299404e-01 1.4160814908536942e+01 1 0 0
116 3 1.2058106648096894e+01 3.5166882950407832e+00 1.4688636784549239e+01 1 -1 0
441 2 1.2050954417430104e+01 3.4747700380908384e+00 1.6531144058915888e+01 -11 10 0
114 2 1.2219995838978869e+01 3.3937297348629198e+00 1.2346487075765934e+01 1 -1 0
29 2 8.7825775658780980e+00 3.4489536259922344e+00 1.3155332423753380e+01 1 -1 0
350 1 8.2973591820314105e+00 3.8107023386220673e+00 1.6452316786371256e+01 -2 9 0
85 3 8.7879305405601364e+00 1.8321722722198963e+00 1.4532533236395929e+01 1 0 0
439 1 1.2186576004527117e+01 1.6027114327332219e+00 1.6588115191958781e+01 -11 10 0
90 2 8.9581828202280072e+00 4.2683963873177871e-01 1.5689527393155142e+01 1 0 0
87 2 6.8102838694524133e+00 1.8783160918010253e+00 1.4510716563002104e+01 1 0 0
406 1 1.2511336270781408e+01 4.1773942188040136e+00 1.7022968807609004e+01 -1 3 0
544 1 1.0903489955717173e+01 2.9591284746752797e+00 1.7773947137193598e+01 2 8 0
506 1 8.5568456435540519e+00 8.1562177916310996e-01 1.7379024510536500e+01 -3 2 0
546 2 7.7780424236976868e+00 1.0593288380491968e+00 1.7933458053359320e+01 4 7 0
440 1 1.1611915232464732e+01 2.2277560049682846e-01 1.7035452178101060e+01 -11 11 0
261 2 7.5950602979241726e+00 4.4072627413070791e+00 1.8006382138449673e+01 -4 5 0
542 1 8.1049829431710130e+00 1.9619598384391759e+00 1.8130724613905834e+01 -2 4 0
392 1 1.1122773601498436e+01 1.0286653231917644e+00 2.2400037453309672e+01 -4 -2 0
322 1 8.6934784836208383e+00 1.9424602570610856e+00 2.1386462428027620e+01 -2 5 0
393 2 1.1529678780363557e+01 1.8346704825227707e+00 2.2795612145893383e+01 -4 -2 0
323 1 8.4583995116696347e+00 5.5872154991252221e-01 2.0742272876351212e+01 -2 5 0
449 1 1.0112073294336325e+01 3.1078191947951224e+00 2.2670220190663418e+01 -3 -4 0
507 2 1.0428638326911063e+01 2.5446191321545126e+00 1.8478908322316464e+01 1 0 0
480 2 7.2533152432746935e+00 3.3697671312385444e+00 2.3342559443959395e+01 2 -7 0
450 2 9.7480367765056055e+00 4.0112176179479180e+00 2.2926572853738932e+01 -3 -4 0
324 2 9.1003755735583169e+00 1.0669772546344440e+00 2.1235367149194918e+01 -2 5 0
428 1 8.2631155585242890e+00 1.7533531245206893e+00 2.4056242412487631e+01 1 12 0
260 1 7.2045270400597552e+00 4.1153532335406586e+00 1.8857749155123930e+01 -4 5 0
554 1 1.0248962867641186e+01 3.2749930233229780e+00 1.9102270288597911e+01 1 3 0
311 1 1.0608243439758533e+01 9.6393907353258934e-01 1.8745301848304290e+01 -2 -7 0
391 1 1.2164559619064997e+01 2.2508835565629921e+00 2.2127192713842678e+01 -4 -2 0
479 1 8.1801410080509793e+00 3.7330606456704243e+00 2.3187253188158042e+01 2 -7 0
556 1 6.7152717756860634e+00 2.0637644997767652e+00 1.9883502700091494e+01 1 1 0
253 1 1.2369499415569143e+01 1.9811276912079008e+00 1.9992527051232070e+01 -11 -6 0
495 2 6.9954106864927041e+00 2.9427645176246982e+00 2.0116117349795537e+01 3 1 0
373 1 1.2806548439961164e+01 1.3571440310558061e+00 2.4014578922080663e+01 -13 8 0
478 1 7.0637027777577703e+00 3.8176909656329494e+00 2.4177125353302706e+01 2 -7 0
425 1 7.7791892242953802e+00 1.0328826568621223e+00 2.6228411730562410e+01 -3 -1 0
294 2 8.8777099689348749e+00 2.0552492241791178e+00 2.8758436274375867e+01 5 -5 0
429 2 8.9183203801055448e+00 1.2861117410849694e+00 2.4608243536311917e+01 1 12 0
424 1 7.4400858316195038e+00 1.0794723269689743e+00 2.7670426366581072e+01 -3 -1 0
310 1 8.4518757589895603e+00 4.4172696268785403e+00 2.6245364814307354e+01 3 -1 0
555 2 1.2675149156910690e+01 2.5522349244729599e+00 3.0121920607248605e+01 0 0 0
458 1 1.0763215095341291e+01 3.8401944201125344e+00 2.6236822562036398e+01 -4 -2 0
459 2 1.0019565000268623e+01 3.2847848315741075e+00 2.6595642617477019e+01 -4 -2 0
503 1 8.3349308401006184e+00 3.4618777173222850e+00 2.9509665935842936e+01 -4 -12 0
292 1 9.6200905811503485e+00 2.3674144512555761e+00 2.8144655030222584e+01 5 -5 0
457 1 9.7557214429066494e+00 2.5677113511466940e+00 2.5993309327518254e+01 -4 -2 0
217 1 1.2536543141246376e+01 2.9326295705606755e+00 2.9193876194343972e+01 1 -6 0
235 1 1.2209413738152072e+01 2.8387398614903585e+00 2.6372988666888844e+01 -5 15 0