LAMMPS data file via write_data, version 5 Jun 2019, timestep = 1020000

564 atoms
3 atom types

0.0000000000000000e+00 1.3161440743621954e+01 xlo xhi
0.0000000000000000e+00 8.9076089999999990e+00 ylo yhi
0.0000000000000000e+00 4.8394900000000000e+01 zlo zhi

Masses

1 1
2 16
3 47.86

Atoms # atomic

40 2 3.1513062243314689e+00 3.2489543194917552e+00 4.7011584446571995e+00 0 0 0
33 2 2.4329863059961503e+00 3.2606548200476122e+00 1.1397369113890632e+00 0 0 0
36 2 4.6336493332329987e+00 1.8975997144947665e+00 2.3616988253607376e+00 0 0 0
9 2 5.7456913915405936e+00 3.8159317327508702e-01 4.3645607003441791e+00 0 0 0
37 3 1.1946907173984580e+00 3.2214230953102940e+00 4.7509027402342499e+00 0 0 0
32 3 1.1539201081693222e+00 1.7742877270252693e+00 1.3490613608191639e+00 0 0 0
38 3 4.5184204606322913e+00 1.9327455241744464e+00 4.5721161940912944e+00 0 0 0
41 2 1.2718121232210111e+00 1.8639194613598182e+00 3.2618901748729359e+00 0 0 0
42 2 1.2359697500620435e+00 1.7527607322004926e+00 5.8508393980173512e+00 0 0 0
39 2 5.7372557709549232e+00 3.4647172274839639e+00 4.5150037643074281e+00 0 0 0
31 3 4.5099352625258486e+00 3.3220187586286740e+00 1.1515139320899792e+00 0 0 0
10 2 3.1734552226348733e+00 3.4105749288176457e-01 4.5109045367218261e+00 0 0 0
1 3 4.5394812894439793e+00 4.2780241324077556e-01 1.0922627536478127e+00 0 0 0
3 2 2.3714941051738054e+00 4.1355320443214250e-01 1.2566838844098640e+00 0 0 0
7 3 1.1375711877266208e+00 2.3738839038270027e-01 4.3664889375354710e+00 0 0 0
124 2 6.5104741235817354e+00 3.4609083160179899e+00 9.8526931943783236e-01 0 0 0
94 2 6.4697065662703794e+00 5.8305423930449451e-01 9.8593061040569452e-01 0 0 0
22 2 3.3788708254337418e+00 3.5066611279953069e-01 1.1159655538063282e+01 0 0 0
44 3 1.2718650238879154e+00 1.9095711691362451e+00 7.8929374065017521e+00 0 0 0
49 3 1.4847817606951128e+00 3.3884022478427345e+00 1.1041576782885533e+01 0 0 0
48 2 4.6524182872935045e+00 1.7154024310320244e+00 9.1829149861604726e+00 0 0 0
43 3 4.5228234111339383e+00 3.2778842085598345e+00 8.0092648454544371e+00 0 0 0
47 2 4.5759792601916081e+00 1.8083379011791951e+00 6.5031151603316006e+00 0 0 0
50 3 4.8660960355218750e+00 1.6958349622995310e+00 1.1269269513380921e+01 0 0 0
51 2 5.9933579374335499e+00 3.1907011131985623e+00 1.1208872335804552e+01 0 0 0
45 2 2.6488395185509375e+00 3.2366848311681089e+00 7.7769870228283677e+00 0 0 0
52 2 3.3011287645988672e+00 3.2109306253389400e+00 1.1140668774165318e+01 0 0 0
53 2 1.3898162018005757e+00 1.8671503512246614e+00 9.8188494625109293e+00 0 0 0
21 2 5.9238104751737293e+00 2.2785255555648962e-01 1.1162655228382345e+01 0 0 0
19 3 1.5691196631373605e+00 3.5470498856241611e-01 1.1115582586847758e+01 0 0 0
13 3 4.6249397761978113e+00 3.0599653643521890e-01 7.7575190761917607e+00 0 0 0
106 2 6.5698193297988521e+00 4.0001625663167850e-01 7.7806290452842140e+00 0 0 0
15 2 2.6805088360723563e+00 3.7435440505601475e-01 7.7210359952179255e+00 0 0 0
46 2 1.5952642093800534e-01 3.3923963122163081e+00 7.6341902504332708e+00 0 0 0
16 2 7.2446771425213149e-02 3.9193866780926334e-01 7.8076107658685956e+00 0 0 0
55 3 4.6284685825790781e+00 3.3657674104184232e+00 1.4600394426502865e+01 0 0 0
54 2 1.2228060526550617e+00 1.7065714801644882e+00 1.2494665091901769e+01 0 0 0
365 1 4.4967899780842409e+00 1.9317272605115039e+00 1.6755922786844646e+01 2 2 0
57 2 2.5947654672178531e+00 3.2222635742082475e+00 1.4462235454645013e+01 0 0 0
25 3 4.5731190770364440e+00 3.2869999438739650e-01 1.4485955326674070e+01 0 0 0
59 2 4.5911232162163724e+00 1.7800983458767090e+00 1.3200063131348438e+01 0 0 0
503 1 1.4480979169218051e+00 2.8155785003283738e+00 1.6885238451284163e+01 -1 -4 0
56 3 1.3417051752316047e+00 1.7579908962787087e+00 1.4289030035130667e+01 0 0 0
492 2 9.2982290440418802e-01 1.9990326821598421e+00 1.6616307682538746e+01 -2 0 0
58 2 2.4994572138751933e-02 3.4221447400325498e+00 1.4539789759076175e+01 0 0 0
60 2 4.3854721616531531e+00 1.8268126733278496e+00 1.5810930708927678e+01 0 0 0
27 2 2.5052994012503720e+00 3.1039512072493997e-01 1.4585655567186935e+01 0 0 0
329 1 3.6801611663541922e+00 4.6145325576442597e-01 1.7245284617984808e+01 -2 1 0
28 2 8.2975054320848229e-02 3.5264010177741062e-01 1.4730775448387220e+01 0 0 0
118 2 6.4917630598585587e+00 3.4172923430211832e-01 1.4504137807293452e+01 0 0 0
395 1 3.1187602935021985e-02 2.2048005496013832e+00 1.6881658749279406e+01 2 1 0
502 1 2.9275244815111878e+00 4.4392330926316435e+00 1.6336835576393923e+01 0 0 0
505 1 2.9010979649308335e+00 1.3020757823398579e+00 2.0538421415589095e+01 -1 3 0
512 1 3.9387254799886029e+00 2.4997587180722975e+00 1.8806684537232940e+01 1 1 0
516 2 2.6086628302993251e+00 1.8062205516839311e+00 1.9738007515126753e+01 -2 3 0
425 1 3.7385660534407656e+00 2.0298300469953561e+00 2.2556857247220620e+01 4 -4 0
197 1 2.4988101463081493e+00 1.2085139576201840e+00 2.2878703272932263e+01 -1 1 0
426 2 3.3290720593585594e+00 1.1490721271294912e+00 2.2257275849297034e+01 4 -4 0
466 1 5.3468043350338981e+00 3.2899658422208233e+00 1.8416905135356295e+01 4 3 0
392 1 2.9505489348671694e+00 6.5525815631261553e-01 1.8562248535065908e+01 2 0 0
364 1 6.5062295732253519e+00 5.7970112082785563e-01 2.0406472607812326e+01 1 1 0
554 1 1.6301441869386963e+00 1.9698640955621534e+00 1.9853306650913851e+01 3 5 0
468 2 4.7854974033748769e+00 2.4253833012219905e+00 1.8276815829964196e+01 4 3 0
553 1 4.6316823124664488e+00 3.5880845440653300e+00 2.3836504289335057e+01 3 5 0
555 2 4.6131069234426212e+00 3.7440116119620912e+00 2.2847979410489817e+01 3 5 0
334 1 7.7848852187776840e-01 2.0486938499161500e+00 2.3789031887046335e+01 4 3 0
320 1 6.1816997333746606e+00 1.5817068964363403e+00 1.9297964966591685e+01 0 0 0
403 1 2.7219663530336287e+00 4.2217541865089436e-01 2.6985748859199912e+01 -2 4 0
185 1 4.0479117151220478e+00 3.8059611338741965e+00 2.9022016905644549e+01 -3 -3 0
564 2 1.5766823620805517e+00 1.6586712487458373e+00 2.6869904358116585e+01 1 -1 0
335 1 1.5139696892995800e+00 1.5110700285259222e+00 2.5184792106252726e+01 4 3 0
391 1 2.3453816821157561e-01 1.4581855204403507e+00 2.9727921149969216e+01 1 1 0
563 1 9.0120673286679109e-01 1.3965033052575346e+00 2.7572184670660597e+01 1 -1 0
238 1 5.8097657111651753e+00 2.7058848275818876e+00 2.6119301068821720e+01 0 -1 0
562 1 2.1661757217831945e+00 2.3464654134020528e+00 2.7248890475984467e+01 1 -1 0
240 2 5.2115895844885971e+00 3.4086211302202685e+00 2.5815226493357930e+01 0 -1 0
306 2 3.2911165887308567e+00 3.7033493450261488e+00 2.7513944453976119e+01 1 0 0
509 1 5.7535892576736538e+00 4.2228592914628038e+00 2.6156051509075883e+01 1 0 0
304 1 4.0392274557785433e+00 3.5657124940312390e+00 2.6798819904757021e+01 1 1 0
184 1 4.7722388095457600e+00 3.0244737059145734e+00 3.0197856434809204e+01 -3 -3 0
186 2 4.3263562767666759e+00 3.9550565901110324e+00 2.9959295907802503e+01 -3 -3 0
336 2 1.2786435516116093e+00 1.2544177528651754e+00 2.4226045876050552e+01 4 3 0
295 1 3.6302566415258837e+00 2.6140326949046222e+00 3.4329871135533075e+01 -1 5 0
447 2 6.6947272456879747e-01 1.7987191732351813e+00 3.1298943204997911e+01 3 0 0
361 1 2.3718525325199242e+00 4.1955577634092478e+00 3.3132007968751182e+01 1 -1 0
446 1 1.2303222242802272e+00 9.5346239690826473e-01 3.1459060934081680e+01 3 0 0
283 1 2.5748760147920642e+00 4.3250937042443010e+00 3.0853920686392517e+01 1 -2 0
297 2 4.1865146250158389e+00 1.8428283645512396e+00 3.4511980004338490e+01 -1 5 0
296 1 4.9753539172631971e+00 1.6944268756457121e+00 3.3917574705343334e+01 -1 5 0
285 2 1.7395024290240728e+00 4.3005995430002946e+00 3.1389069608986524e+01 1 -2 0
315 2 5.6225035127750038e+00 1.7918533001074581e+00 3.0450509572440243e+01 3 1 0
362 1 1.8334112568662537e+00 4.1639467397416494e+00 3.4607400807368997e+01 1 -1 0
314 1 6.0458263348135830e+00 1.8567051823852383e+00 3.1309010072712070e+01 3 1 0
390 2 6.2927109185215526e+00 1.6809932175365607e+00 3.3026425548023539e+01 -3 1 0
557 1 1.4548276308048711e+00 3.2907192893017059e+00 3.1283082402456067e+01 -1 -1 0
381 2 5.1827810687435405e-01 4.3273344306775083e+00 3.5577851285085885e+01 2 -3 0
229 1 2.9425065112529221e+00 5.0478141982764579e-01 3.4455677633113723e+01 -1 3 0
232 1 4.6292863959521560e+00 2.0826943327867564e+00 3.6042099684761432e+01 3 -1 0
363 2 2.7172743647320052e+00 4.2099407532394748e+00 3.4091391440578469e+01 1 -1 0
276 2 1.6213911868115366e-01 4.3019871686807619e-02 3.5895682917070367e+01 2 3 0
313 1 4.9198220427756461e+00 1.0633377440866540e+00 3.0429385668874652e+01 3 1 0
234 2 4.7595227210816953e+00 2.1425376672881957e+00 3.7021869556703848e+01 3 -1 0
332 1 3.4686431800672182e+00 2.0510000747714310e+00 3.7728020318762901e+01 -2 0 0
317 1 1.9776523986143497e+00 5.6013722470742378e-01 3.8437835035392119e+01 -1 1 0
437 1 4.1669461807022863e+00 1.2907806720273760e+00 4.1227195676076541e+01 0 2 0
245 1 1.5749815754576737e+00 3.4873715596737811e+00 3.8255553129530121e+01 1 0 0
233 1 5.3529279813027140e+00 2.9381738606541932e+00 3.7209976958429145e+01 3 -1 0
463 1 4.1810315522363419e+00 2.9199204363096758e+00 4.1551616991803229e+01 0 1 0
510 2 3.6992529265222642e+00 2.2063152408944138e+00 4.1065850980239766e+01 0 1 0
244 1 3.8434824325876132e-01 4.2295862168713008e+00 3.8906791342473767e+01 1 0 0
533 1 2.2469198406287290e+00 1.8226414661434946e+00 4.1689568828566685e+01 0 -3 0
333 2 2.6692631909208204e+00 1.9746365386079971e+00 3.8453362445687794e+01 -2 0 0
217 1 2.9328718451041120e+00 2.1504486936608176e+00 3.9346064792463025e+01 2 -1 0
298 1 5.6712702820025509e+00 7.1909870799229192e-01 3.7264058765870260e+01 -2 -1 0
486 2 5.0845714064407490e+00 4.3159001955418574e+00 4.2064814620550933e+01 1 -5 0
246 2 1.2788782425021894e+00 4.4188501783911045e+00 3.8268399144309832e+01 1 0 0
274 1 5.5094960127189629e-01 4.1764787099630496e-02 3.6825688594533077e+01 2 3 0
294 2 6.4602228925793046e+00 4.1806404260949375e+00 3.8041677022504665e+01 4 0 0
561 2 1.5090237501476385e+00 1.5059497680492802e+00 4.2267647411432314e+01 -4 -1 0
300 2 6.2382618671647929e+00 3.6925517722446344e-02 3.7663642684255557e+01 -2 -1 0
464 1 5.0629199403805547e-01 2.7022493905351824e-01 4.2212688872537946e+01 1 -1 0
485 1 5.4289474733314655e+00 4.3848980485220963e+00 4.3039354396930285e+01 1 -5 0
266 1 2.5303739077616414e+00 1.5737011679693775e+00 4.5336604890350515e+01 0 -4 0
35 2 4.3851407314480673e+00 1.8154780034753091e+00 4.8131435957833524e+01 0 0 -1
544 1 2.8392936916487774e+00 1.9179395040855582e+00 4.7358643850010779e+01 3 4 0
251 1 5.1536479772836206e+00 2.1381834715238002e+00 4.7015385143160429e+01 3 4 0
560 1 1.9170576171458553e+00 1.2661340053685715e+00 4.3173013913958158e+01 -4 -1 0
282 2 2.6628020553753879e+00 1.0022027095440522e+00 4.4523889090966925e+01 1 3 0
226 1 5.4110263308496229e+00 3.8886081866101723e+00 4.5136989637318905e+01 0 9 0
237 2 5.6920829872835883e+00 2.3206174844591163e+00 4.6008007728903877e+01 -1 1 0
252 2 1.8539460212594288e+00 1.7626793571457100e+00 4.6996466690712211e+01 3 3 0
289 1 5.4854814983410698e+00 1.6088625111654771e+00 4.5367546772596370e+01 -1 -1 0
432 2 3.0270725630028115e-02 3.6977594382345069e+00 4.2349519701335382e+01 2 0 0
308 1 1.5802548390340292e+00 3.5535379393335766e+00 4.6874420517224607e+01 0 0 0
327 2 5.6187277128145414e+00 9.7453628471846715e-02 4.4203337575371044e+01 -4 7 0
250 1 1.4224630470354649e+00 8.5940563716196128e-01 4.7066993338722362e+01 3 3 0
301 1 3.6492087819787167e+00 8.3420464398636263e-01 4.4471664655200534e+01 0 2 0
431 1 6.7859070119774489e-01 2.9248399323904399e+00 4.2397233277546896e+01 2 0 0
6 2 4.4887671872583690e+00 7.7639066028715762e+00 2.3061813117675665e+00 0 -1 0
67 3 1.3907279377540471e+00 6.3247154680185389e+00 4.4071062959345184e+00 0 0 0
8 3 4.4802110787953868e+00 7.9461262166764683e+00 4.4251810364282500e+00 0 -1 0
11 2 1.3548949067642715e+00 7.6754678023252243e+00 3.1744887735149230e+00 0 -1 0
63 2 2.3615634694838463e+00 6.2524723265171414e+00 9.8084030367192643e-01 0 0 0
12 2 1.1978309536610452e+00 7.9980643375099199e+00 5.7649619266602521e+00 0 -1 0
61 3 4.5459143129547890e+00 6.4745103679185094e+00 1.0154269106476077e+00 0 0 0
72 2 1.3534376442830731e+00 4.7757428637375678e+00 5.7993287081333191e+00 0 0 0
70 2 3.2467966156605530e+00 6.4208436027452489e+00 4.4748410683839985e+00 0 0 0
2 3 1.2487977653479292e+00 7.7069759999883027e+00 9.3769509800669248e-01 0 -1 0
69 2 5.8049693281159973e+00 6.2861276506842270e+00 4.4844798861478310e+00 0 0 0
68 3 4.5694671636996116e+00 4.9076030467510696e+00 4.2589293471791576e+00 0 0 0
62 3 1.1862912954604343e+00 4.7678803553172351e+00 1.3027539816925224e+00 0 0 0
71 2 1.2541918907145142e+00 4.9473263696033003e+00 3.2495744833300351e+00 0 0 0
66 2 4.3866760093067034e+00 4.8652937689686144e+00 2.4189052428097884e+00 0 0 0
154 2 6.4459858226444799e+00 6.2623532813134286e+00 8.6443643580183627e-01 0 0 0
81 2 5.8904538567142009e+00 6.2889823165776644e+00 1.1298433372448018e+01 0 0 0
17 2 4.6680331966229991e+00 7.8515357180536123e+00 6.4298011496344598e+00 0 -1 0
20 3 4.6128945591603552e+00 7.7227897090636883e+00 1.1039205248483121e+01 0 -1 0
18 2 4.5647245114029493e+00 7.7733243393481306e+00 9.2029628249708839e+00 0 -1 0
77 2 4.4738278529220246e+00 4.7635570999649968e+00 6.5376996271753232e+00 0 0 0
23 2 1.3217224080948362e+00 7.8810656134154629e+00 9.8960072876532035e+00 0 -1 0
82 2 3.3865254221066716e+00 6.1556493179261453e+00 1.0992048617193563e+01 0 0 0
73 3 4.5443566093960488e+00 6.1196737557410659e+00 7.5518748811563920e+00 0 0 0
75 2 2.6134521587414890e+00 6.3381732424771853e+00 7.8300804721763599e+00 0 0 0
14 3 1.3891142698263206e+00 7.9190168728640646e+00 7.7270693036315947e+00 0 -1 0
79 3 1.2516051895472264e+00 6.3898196676143648e+00 1.1141938550615622e+01 0 0 0
74 3 1.3325410707764282e+00 5.0084929602508641e+00 7.7067058081764044e+00 0 0 0
78 2 4.6630674827204190e+00 4.7696659578911431e+00 9.0894419065537253e+00 0 0 0
83 2 1.3960507221608227e+00 4.8621675977235510e+00 9.8490505464501403e+00 0 0 0
80 3 4.5711425631574816e+00 4.8052780237998736e+00 1.1309611965006466e+01 0 0 0
76 2 7.8965392883884947e-02 6.2113089345291099e+00 7.8747882909937941e+00 0 0 0
166 2 6.5566714346509452e+00 6.2467055793754360e+00 7.6735444100604031e+00 0 0 0
29 2 4.4397190075376471e+00 7.8802037709821899e+00 1.3207441498370324e+01 0 -1 0
24 2 1.3278012900251190e+00 7.7767673557437540e+00 1.2395892189265796e+01 0 -1 0
30 2 4.6807419158721100e+00 7.7832927658011180e+00 1.5740009783087155e+01 0 -1 0
26 3 1.3065832178109025e+00 7.6752082831528305e+00 1.4452723970821232e+01 0 -1 0
340 1 2.1974631182249396e+00 8.2552907393671084e+00 1.6966227842984527e+01 -2 5 0
85 3 4.6265411195115282e+00 6.3246059567546462e+00 1.4639313213732132e+01 0 0 0
84 2 1.4240876199196151e+00 4.8529473960183234e+00 1.2337103320745953e+01 0 0 0
87 2 2.5427932390699555e+00 6.2043275241116458e+00 1.4548917393307608e+01 0 0 0
341 1 8.2601992604990948e-01 7.4541282821000818e+00 1.7254508888313413e+01 -2 5 0
366 2 1.6162506896328135e+00 7.5331356085852725e+00 1.6600086647988469e+01 2 2 0
90 2 4.4483252664312456e+00 4.7914540969728039e+00 1.5755131723565469e+01 0 0 0
386 1 6.4624086164372043e+00 4.6715972809631259e+00 1.7824864875566277e+01 0 3 0
89 2 4.4831457387226799e+00 4.7146674538587767e+00 1.3123737881721606e+01 0 0 0
490 1 2.0392051556449498e+00 5.4838403021807967e+00 1.6860696157890484e+01 -2 -1 0
86 3 1.2479438421102218e+00 4.7258925550848589e+00 1.4296214066909487e+01 0 0 0
342 2 1.9190144492239058e+00 4.5441542883571033e+00 1.6636667248958549e+01 -2 5 0
330 2 3.1960299195511586e+00 8.9024707121099187e+00 1.7879693179840164e+01 -2 0 0
88 2 8.1411148526940855e-02 6.2957475050529599e+00 1.4262970388247039e+01 0 0 0
178 2 6.4438326190486901e+00 6.1764901225925390e+00 1.4326321966647111e+01 0 0 0
476 1 5.3743278266969439e+00 5.3716165284628046e+00 1.8679604849277194e+01 2 3 0
287 1 6.2205652246048437e+00 7.9042539277513431e+00 2.1617181875245720e+01 1 4 0
286 1 5.4554700285337052e+00 7.7035227036093561e+00 2.0283106330436965e+01 1 4 0
460 1 3.7753515173992906e+00 6.7417932763976678e+00 2.2583713229099317e+01 0 4 0
220 1 4.3013121979140356e+00 8.7626313284041206e+00 2.2932660194321887e+01 0 3 0
461 1 2.5646397640542302e+00 5.7704580917103092e+00 2.3122582469276225e+01 0 4 0
537 2 3.9801851474507255e+00 6.3362182511790257e+00 1.8766800373545315e+01 -2 -3 0
462 2 3.2263578354574194e+00 5.8860171239428114e+00 2.2352581934694260e+01 0 4 0
535 1 3.7628366770145818e+00 7.2047067791075419e+00 1.8329931121678960e+01 -2 -3 0
477 2 6.0603627132778879e+00 4.6260652665968873e+00 1.8706823012703712e+01 2 3 0
417 2 1.7408042553562519e+00 5.6041243296302392e+00 2.0119260287425572e+01 -3 2 0
469 1 4.1707707770128639e+00 4.5657903180010164e+00 2.2746701930709722e+01 1 3 0
536 1 3.1178099562319455e+00 6.0169176765152628e+00 1.9074310156704300e+01 -2 -3 0
288 2 6.3606868383760773e+00 7.8265250500166701e+00 2.0650108758961700e+01 1 4 0
323 1 2.1680733448004177e+00 5.7097061846672199e+00 2.0949594940080576e+01 -1 0 0
412 1 5.0988220443717616e+00 7.9021641167249639e+00 2.3994075023386031e+01 -1 3 0
387 2 4.8846574006318360e+00 8.0104150944746362e+00 2.3073635165346605e+01 -2 2 0
478 1 8.5086100850296009e-01 4.8388512985273344e+00 2.4061331066465442e+01 1 3 0
508 1 1.2950988172400364e+00 4.7652233278949945e+00 2.0108414782092993e+01 -2 3 0
448 1 6.0163465998306203e+00 4.4945089702575487e+00 2.1666213348443190e+01 2 1 0
356 1 2.8816837466195735e+00 4.5458481324274986e+00 2.7218109532179373e+01 0 -1 0
277 1 6.3622563065654603e-01 6.1768128599650662e+00 2.7878471490318514e+01 2 -2 0
367 1 4.8643054340033975e+00 8.3251723016792596e+00 2.6464700441749507e+01 5 0 0
488 1 1.7026335259183316e+00 5.9142512821655071e+00 2.5925082778299963e+01 3 2 0
511 1 4.6578187028590895e-01 8.8702866892815369e+00 2.4761034349261354e+01 1 -1 0
489 2 2.1063586977254967e+00 5.9881127833418173e+00 2.6846395206236540e+01 3 2 0
404 1 3.4497641022575265e+00 8.8201589521303561e+00 2.8251301413923983e+01 -2 3 0
487 1 2.5126526149150883e+00 6.8384596034014891e+00 2.6796676024015422e+01 3 2 0
480 2 1.4373643712062387e+00 5.6403528757486727e+00 2.4244761409606220e+01 1 3 0
377 1 6.3263002443612413e+00 6.6764832421601437e+00 2.6352184573677079e+01 -2 -1 0
405 2 3.3937982470428225e+00 8.6888157850609886e+00 2.7271962879720185e+01 -2 3 0
519 2 3.8476545758643201e+00 8.6596205260138888e+00 2.9838677775077819e+01 2 1 0
369 2 5.6295624548034295e+00 8.1356894444648269e+00 2.5909406241638916e+01 5 0 0
368 1 6.2754181005913621e+00 8.8418279342582053e+00 2.6215864713030573e+01 5 0 0
518 1 4.4300371338535669e+00 7.8604996391352016e+00 2.9833226711283285e+01 2 1 0
479 1 7.0254839158645277e-01 6.2607589997587754e+00 2.4332158058483866e+01 1 3 0
423 2 5.3013808015984036e+00 6.3244588304455531e+00 3.0293608982431785e+01 0 4 0
358 1 3.4261608869514646e+00 5.6640696653739901e+00 3.4314893187930579e+01 0 4 0
349 1 5.2839117220098775e+00 6.4803870417390339e+00 3.3651889192839668e+01 -2 2 0
548 1 2.3067322752610400e+00 8.4644796938431188e+00 3.2729255066523422e+01 1 2 0
351 2 6.0974142624563417e+00 6.3085791797118951e+00 3.3139636560555978e+01 -2 2 0
416 1 4.1921018760457009e+00 6.6122552035411273e+00 3.5614608563186074e+01 0 2 0
343 1 6.3095587483980653e-01 5.4728499853999812e+00 3.1217685735344869e+01 1 2 0
350 1 6.4007482206456698e+00 5.4627005876851360e+00 3.3447633910687316e+01 -2 2 0
547 1 1.4843896145475453e+00 7.6151198201201300e+00 3.1496293836371517e+01 1 2 0
453 2 1.5950208335967933e-01 6.3088973404208248e+00 3.0907890250755383e+01 0 3 0
360 2 3.8616868220163760e+00 6.6050108400417731e+00 3.4631094999827141e+01 0 4 0
382 1 2.8793819832823089e+00 7.9322334337137494e+00 3.4488092979441760e+01 -1 1 0
549 2 1.9806038651807529e+00 8.4242492760749297e+00 3.1727372146857743e+01 1 2 0
421 1 5.4899288232906329e+00 6.3718747503003321e+00 3.1247983491375201e+01 0 4 0
384 2 2.2805269895760287e+00 8.6995760271566596e+00 3.4345618534590031e+01 -1 1 0
517 1 3.1531448142846319e+00 8.4533726382748071e+00 3.0437425970835211e+01 2 1 0
275 1 9.9523306644201615e-01 8.8231865652715129e+00 3.5373668906028918e+01 2 2 0
422 1 4.9572588510861344e+00 5.3581942581404034e+00 3.0337341421204290e+01 0 4 0
419 1 2.3515084023776489e+00 5.6087880172954829e+00 3.8717116693319248e+01 1 -1 0
534 2 3.4849581540699863e+00 6.3287783915069369e+00 4.1579786338464039e+01 0 -1 0
318 2 1.4774772449666345e+00 8.5656135147804733e+00 3.8556766127813020e+01 -1 0 0
267 2 4.8660591306144889e+00 8.7008729823988080e+00 4.1765619428839109e+01 0 -2 0
235 1 4.5478768345287079e+00 5.1477747530876163e+00 4.1895911194754412e+01 1 0 0
418 1 2.4065595198344094e+00 7.2429968458377383e+00 3.9154081995224423e+01 1 -1 0
302 1 4.2589512834796412e+00 7.9180784670469473e+00 4.1601441667731862e+01 0 2 0
420 2 2.9194920412482808e+00 6.3907758521416334e+00 3.9063402001694215e+01 1 -1 0
256 1 4.1131082236484344e+00 6.5993902761707028e+00 3.8080113473306163e+01 3 3 0
257 1 5.4030675888721200e+00 5.8699538355562666e+00 3.7640052640577331e+01 3 3 0
236 1 3.2549077332325420e+00 6.3230843055013741e+00 4.0639010697789999e+01 0 3 0
258 2 4.8579108762947509e+00 6.6106058489497510e+00 3.7436215825782831e+01 3 3 0
545 1 2.6808506174998454e+00 6.0181984037530123e+00 4.2068485196286751e+01 4 4 0
299 1 5.6879172837222001e+00 8.0868333404530315e+00 3.7685026781643195e+01 -2 -2 0
316 1 6.2578202581115150e-01 8.6716745091074774e+00 3.9130116171705239e+01 -1 0 0
539 1 6.1647562338240567e+00 8.7405996670073112e+00 4.0742649386426201e+01 -1 -1 0
379 1 8.9943455681504769e-01 4.5129032167838208e+00 3.6523675216694649e+01 2 -3 0
500 1 6.4299276128074059e+00 4.5604585001921789e+00 4.1080137363263731e+01 -1 1 0
527 1 1.4440653200533120e+00 5.9301629666799309e+00 4.4074232040413570e+01 -1 0 0
409 1 5.3156837993056536e+00 8.1561626425651266e+00 4.4736550707794422e+01 0 -1 0
482 1 1.9022858122245561e+00 7.1549827806703901e+00 4.6159327690759888e+01 1 -2 0
465 2 1.2257013381448973e+00 5.9158946701154322e+00 4.3128026976359934e+01 0 0 0
433 1 3.2290166686043555e+00 4.7303565917720274e+00 4.7858777810638358e+01 2 -1 0
441 2 4.9164959979832101e+00 6.7799393700711148e+00 4.5717701266399487e+01 -2 4 0
307 1 3.3114047106806876e+00 6.3808542746477812e+00 4.5661068932111370e+01 1 -2 0
303 2 7.5660188214136448e-01 8.1220651789264142e+00 4.7517471072956823e+01 1 4 0
243 2 2.3061168263907441e+00 6.3614144927883451e+00 4.5751086806030095e+01 1 -5 0
440 1 5.4683005892853398e+00 6.0182151884901556e+00 4.5480177807002477e+01 -2 4 0
227 1 1.7245661040434059e+00 5.1456685513215588e+00 4.6525514488148261e+01 0 3 0
434 1 5.0851361532692589e+00 8.7376594983345885e+00 4.2723456870493976e+01 1 -3 0
65 2 4.1513859287301793e+00 4.8813358544521410e+00 4.8197282926443435e+01 0 0 -1
410 1 9.0061534887506367e-01 6.7744819025571212e+00 4.2785036810543353e+01 1 -2 0
439 1 4.9459316307828534e+00 7.0716937828131936e+00 4.6690451635785571e+01 -1 5 0
5 2 4.4789835101425792e+00 7.8927692722927025e+00 4.8193144176548053e+01 0 -1 -1
438 2 1.0749793831467751e-01 8.2492437082110897e+00 4.2375548663650207e+01 0 -1 0
309 2 1.5447555545093261e+00 4.4892700547200075e+00 4.7246216783060909e+01 0 -1 0
483 2 5.8434126464334240e+00 4.6319136362030955e+00 4.4721753000730025e+01 1 -2 0
430 1 5.4681353944254052e-01 4.5311974867344320e+00 4.2723335900186505e+01 2 0 0
123 2 8.9420014795619895e+00 3.5049024208775803e+00 8.8306129624280749e-01 0 0 0
121 3 1.1053288267408236e+01 3.4117553998832086e+00 9.6525322193511254e-01 0 0 0
122 3 7.7177134772074565e+00 2.0530043096969464e+00 1.1985717604549295e+00 0 0 0
130 2 9.7663291708482589e+00 3.1891568546244486e+00 4.6181145787934481e+00 0 0 0
131 2 7.6792055594131545e+00 2.0157852311496125e+00 2.9940558686658592e+00 0 0 0
128 3 1.1017342978175286e+01 1.7729442381789415e+00 4.2799909865924066e+00 0 0 0
132 2 7.6976833640341455e+00 1.7999555680327302e+00 5.7044912329015842e+00 0 0 0
129 2 1.2334101059726555e+01 3.3359256067660121e+00 4.3476827818592039e+00 0 0 0
127 3 7.8295817029465358e+00 3.2644344519428277e+00 4.7027285257490696e+00 0 0 0
126 2 1.0927473942652261e+01 1.9410305940004615e+00 2.3182476675282238e+00 0 0 0
99 2 1.2374565030805465e+01 3.7057130186050241e-01 4.2417935909008095e+00 0 0 0
93 2 9.0869167325814857e+00 4.3944417150525511e-01 1.0665776153550335e+00 0 0 0
91 3 1.0950776519384773e+01 4.2088189348378258e-01 1.1628832967980254e+00 0 0 0
97 3 7.7569916437978543e+00 2.7488649470449916e-01 4.1754268162335180e+00 0 0 0
100 2 9.7313212008226628e+00 5.1620245182801472e-01 4.3740712855111950e+00 0 0 0
34 2 1.3106767055359560e+01 3.3151373519090535e+00 1.0995236586464643e+00 -1 0 0
4 2 1.2985844289722879e+01 4.0562654349861532e-01 1.3184308588303491e+00 -1 0 0
135 2 9.1827497695978977e+00 3.2634034840016510e+00 7.8016624152543645e+00 0 0 0
142 2 9.8891395163299691e+00 3.2946333269727330e+00 1.1003332506878616e+01 0 0 0
143 2 7.9115784418380874e+00 1.6551226776704053e+00 9.9028037907220181e+00 0 0 0
105 2 9.0856189262769487e+00 3.2067317265612305e-01 7.6132259238459010e+00 0 0 0
138 2 1.1205843665048036e+01 1.8317242435765890e+00 8.9912238411536034e+00 0 0 0
140 3 1.1389109370075497e+01 1.9017103990481787e+00 1.1366700658011551e+01 0 0 0
134 3 7.8599707922766902e+00 1.7639094353082354e+00 7.8505944350138854e+00 0 0 0
141 2 1.2476508812230524e+01 3.3259768130433609e+00 1.0998986287377679e+01 0 0 0
137 2 1.1101811643812223e+01 1.7852110443363629e+00 6.4271363025265940e+00 0 0 0
139 3 7.8596004561910169e+00 3.3612327473321404e+00 1.1387287312712287e+01 0 0 0
133 3 1.1326956098631900e+01 3.2811119772870541e+00 7.5073231068436144e+00 0 0 0
112 2 9.9926015871283660e+00 2.9250343861820716e-01 1.1047049020941895e+01 0 0 0
111 2 1.2408064084664208e+01 2.6886024473743259e-01 1.1152345252975262e+01 0 0 0
109 3 8.1429387716527071e+00 2.2873807890871312e-01 1.0932559699162153e+01 0 0 0
103 3 1.1206216927445675e+01 3.8935924392672816e-01 7.9279689405832050e+00 0 0 0
136 2 6.6209042443466206e+00 3.2406609942704696e+00 7.6077861579589525e+00 0 0 0
148 2 6.5822023778116066e+00 3.3737189523196363e+00 1.4286590413394633e+01 0 0 0
146 3 7.8927567677730792e+00 1.7679470575470497e+00 1.4301134680077624e+01 0 0 0
145 3 1.1208061829094387e+01 3.4397437512987250e+00 1.4501009404124222e+01 0 0 0
149 2 1.1328454605148746e+01 1.8816081989904723e+00 1.3219559817704768e+01 0 0 0
117 2 8.9935308104612162e+00 3.6951122620983473e-01 1.4550403366315855e+01 0 0 0
324 2 8.3333967466046648e+00 2.0810606607406030e+00 1.6576171667252858e+01 -1 -1 0
147 2 9.1511595967065826e+00 3.3116340353941665e+00 1.4258923138382658e+01 0 0 0
115 3 1.1246871557084210e+01 3.2398818670788615e-01 1.4733531269946791e+01 0 0 0
144 2 7.8334959554288952e+00 1.7349470387443413e+00 1.2444488000640895e+01 0 0 0
150 2 1.1017449646571219e+01 1.8830293545681953e+00 1.5749126468917567e+01 0 0 0
401 1 1.1182955661711510e+01 1.5850216222870377e+00 1.7390398731023154e+01 -2 1 0
467 1 9.2463300526460817e+00 2.3395183607196266e+00 1.6313767740849261e+01 4 3 0
196 1 8.0971754448765090e+00 3.0530084219202882e+00 1.6787941339751519e+01 -1 3 0
475 1 1.2091617804849278e+01 4.3677806263045111e+00 1.7538621262052793e+01 1 0 0
198 2 6.8990931309530055e+00 1.4085485017900072e+00 1.9947798414510537e+01 -2 0 0
494 1 9.9460032290099338e+00 3.1067205290728404e+00 2.1726767314928395e+01 1 5 0
471 2 9.1368533280039195e+00 2.5908989685131911e+00 2.2016581282191598e+01 -1 2 0
400 1 1.0417528288101328e+01 6.6389814413654558e-01 1.8379083779539183e+01 -2 1 0
402 2 1.1339757706038611e+01 1.1629200683504501e+00 1.8312123572926943e+01 -2 1 0
230 1 1.2304797820739486e+01 1.8386402422509880e+00 1.9580627977352435e+01 -1 0 0
452 1 8.6508336384430038e+00 2.9337340324966608e+00 1.9445830708171478e+01 -3 0 0
414 2 9.3582692310001416e+00 3.5228737455090262e+00 1.9159067275161146e+01 1 4 0
269 1 8.8960311952401643e+00 2.0309217043833159e+00 2.3656373054199580e+01 2 2 0
413 1 1.0111238917736735e+01 3.0079479544001253e+00 1.8835935990685797e+01 1 4 0
450 2 6.8873740723085914e+00 4.2750963324284514e+00 2.1240961025977438e+01 2 1 0
491 1 8.4145348429017126e+00 3.0880589506087306e+00 2.1573927842662389e+01 -3 -1 0
209 1 9.0383242191097217e+00 6.0240943040266159e-01 2.2025643386892423e+01 0 -2 0
397 1 1.2054078858684603e+01 3.0843798746861277e+00 2.1019846277686987e+01 -1 0 0
344 1 1.2826697565824873e+01 1.2157944915433985e+00 2.0959276657527031e+01 -1 0 0
249 2 1.1534351808364651e+01 3.7452275457142878e+00 2.1644005640444306e+01 0 0 0
531 2 1.3052516903176910e+01 3.6376001256768413e+00 2.3774746192055659e+01 -1 1 0
530 1 1.2413156572435502e+01 3.5603489690755294e+00 2.2987086484041445e+01 -1 1 0
407 1 8.1732978720358709e+00 1.2704741822917881e-01 1.8909089045552925e+01 0 2 0
231 2 1.3095771077122404e+01 1.8156927436649513e+00 2.0191101026919007e+01 -1 0 0
219 2 1.0689637349849344e+01 3.8545643764364361e+00 2.5672047888271081e+01 0 -1 0
270 2 9.0181057827966367e+00 1.9552674885472459e+00 2.4665752031022826e+01 2 2 0
357 2 8.0155009722655510e+00 1.7810718366451765e+00 2.8999587084698366e+01 1 -2 0
211 1 1.0062118418574821e+01 3.1191031214799039e+00 2.5350769733144705e+01 -3 0 0
354 2 7.0072846422723236e+00 1.3425233396881615e+00 2.6412071716682785e+01 1 4 0
192 2 9.3131655617920099e+00 4.0060283656706632e+00 2.9533579567506724e+01 -1 -3 0
352 1 7.2846263573655374e+00 1.6325488624505033e+00 2.7336838285294686e+01 1 4 0
305 1 7.2344197937057944e+00 1.5700964673501621e+00 2.9446345644289757e+01 2 -1 0
415 1 8.5429717896832713e+00 9.3940878048851340e-01 2.9076526521393113e+01 1 -2 0
191 1 8.6853157254684739e+00 3.2883566243421165e+00 2.9220216067523971e+01 -1 -3 0
353 1 7.8349939278670115e+00 1.5567148975242000e+00 2.5839257890145163e+01 1 4 0
218 1 1.1014016617194512e+01 3.5895086814787631e+00 2.6569338922456517e+01 0 -1 0
406 1 1.2675319746263323e+01 2.3544137796068028e+00 2.8632412341555277e+01 -1 2 0
268 1 9.4055766555047313e+00 1.0375085956998598e+00 2.4816792519884739e+01 2 2 0
408 2 1.3117442199974835e+01 1.4605987922244694e+00 2.8762135911887309e+01 -1 2 0
194 1 1.0883685874146076e+01 3.7686507839778782e+00 2.8755730006776872e+01 1 0 0