LAMMPS data file via write_data, version 5 Jun 2019, timestep = 1020000

564 atoms
3 atom types

0.0000000000000000e+00 1.0463234318202188e+01 xlo xhi
0.0000000000000000e+00 1.1408130000000000e+01 ylo yhi
0.0000000000000000e+00 4.8595999999999997e+01 zlo zhi

Masses

1 1
2 16
3 47.86

Atoms # atomic

24 2 4.1513972819711292e-01 3.8934680737488905e+00 4.8207255660729871e+00 1 0 0
1 3 3.7888816896520430e+00 3.8212590179579462e+00 1.6166191451943122e+00 1 0 0
4 3 9.7557062965581021e-01 3.8635839070502889e+00 8.0820519788532985e-01 1 0 0
125 2 2.1460915419775839e+00 1.8183769037579753e-01 2.3361173935577315e+00 1 1 0
18 2 4.2691698594226954e+00 3.7508895930224395e+00 3.6820528655489420e+00 1 0 0
8 2 4.3113961120315505e+00 1.8828919052734279e+00 1.4675836482924371e+00 1 0 0
16 3 2.4848195711966317e+00 3.8719143287822262e+00 4.4453395274236538e+00 1 0 0
11 2 5.1589833353652170e-01 1.9299779269785691e+00 7.5392727196017040e-01 1 0 0
23 2 1.9526683829625806e+00 2.0814401806066378e+00 4.4840442186246925e+00 1 0 0
144 2 4.7338615324857936e-01 1.0043134753798352e-01 5.0535295674434542e+00 1 1 0
5 2 2.0808800001185443e+00 3.8769901692044502e+00 2.4226427502305228e+00 1 0 0
136 3 2.4938522004000969e+00 1.6317839520153846e-01 4.3324618000199067e+00 1 1 0
138 2 4.2121801521204389e+00 1.9582222091203036e-01 3.5077224592754956e+00 1 1 0
17 2 3.5033543148547270e+00 3.8632392354277902e+00 6.0449235786969666e+00 1 0 0
124 3 1.1015556247959508e+00 6.1352699316707310e-02 8.2103924944639617e-01 1 1 0
6 2 2.7432797581771347e+00 3.8287940404478746e+00 1.1356621042685922e-01 1 0 0
15 3 1.4763182833473543e-01 2.0170276039019499e+00 5.2236976492012754e+00 1 0 0
137 2 3.5243179552425099e+00 2.1310896313416064e-01 5.8936198903510286e+00 1 1 0
121 3 3.9400739135034621e+00 5.6186680198958783e-02 1.5843699014284920e+00 1 1 0
46 2 1.7356314875503520e+00 1.7275430052106351e+00 1.0722832952700868e+01 1 0 0
27 3 1.4934219825224970e+00 1.9257466975759674e+00 8.7832260756301732e+00 1 0 0
47 2 4.7187125845557949e+00 2.0271524924533475e+00 1.1456620763346514e+01 1 0 0
35 2 3.3872853065824424e+00 2.0638044522171035e+00 8.0036910164272133e+00 1 0 0
34 2 4.9232473884910527e-01 2.0216493894740619e+00 7.1103853298583628e+00 1 0 0
28 3 3.7208681200873701e+00 3.8554159152132423e+00 8.0061862881279282e+00 1 0 0
36 2 1.8867878489193939e+00 3.8974537641236142e+00 8.6892632212012249e+00 1 0 0
29 2 4.8508373439449830e+00 3.9759558071760348e+00 9.4777480910659833e+00 1 0 0
160 3 5.0382888974253683e+00 4.0656039007521620e-02 1.1444487002485795e+01 1 1 0
156 2 1.9385049193453396e+00 1.0744313777666833e-01 8.6049559091137606e+00 1 1 0
149 2 4.8144929700472456e+00 2.1217311847418749e-01 9.4928656265210503e+00 1 1 0
148 3 3.8513004993190951e+00 8.7670798709779493e-02 7.9286811812190265e+00 1 1 0
40 3 5.1298785099059128e+00 3.8944547749752569e+00 1.1479715327887469e+01 1 0 0
94 2 5.1450813317070920e-01 5.6856055652393547e+00 6.9553426811867771e+00 1 0 0
48 2 3.2358774364123306e+00 3.9073932939451286e+00 1.1924152454488198e+01 1 0 0
45 2 9.5472969882117487e-01 1.8427468952423840e+00 1.3077924526358489e+01 1 0 0
39 3 2.9689733346971905e+00 2.0267744390146509e+00 1.2315530917448108e+01 1 0 0
60 2 4.5843262198938559e+00 3.9390061179647526e+00 1.5587380973703326e+01 1 0 0
58 2 3.0506557445829472e+00 2.1597586829700814e+00 1.4168090016770766e+01 1 0 0
55 2 8.1118171499291791e-01 3.9036101696169836e+00 1.5104409102118716e+01 1 0 0
57 2 2.2972758695893090e+00 1.9347183081665524e+00 1.6428463566764851e+01 1 0 0
51 3 3.9847897886008377e+00 1.9722579954238715e+00 1.5768073857166881e+01 1 0 0
50 3 1.0812145649855913e+00 1.9662100445143129e+00 1.4981808012891978e+01 1 0 0
175 2 8.2385612415073339e-01 7.1537225896167067e-02 1.5171684749575839e+01 1 1 0
228 2 4.8759740115742529e+00 1.8978210446499582e+00 1.7689933159336434e+01 1 1 0
180 2 4.6003383549195274e+00 2.0621292495827098e-01 1.5776982327233354e+01 1 1 0
458 1 2.5081544684472240e-01 5.8209108933057085e-01 1.8203300264697294e+01 1 1 0
556 1 1.6262213852954488e+00 1.8591175329319658e+00 1.8053641348210448e+01 -3 2 0
554 1 1.7138985246253238e+00 5.2352496481942330e+00 1.8022350103176255e+01 -1 -1 0
110 3 1.2392488356628051e+00 5.6515559468286929e+00 1.4899138062802203e+01 1 0 0
168 2 3.3032495842670744e+00 8.2031314054871157e-02 1.2212688020525009e+01 1 1 0
332 1 5.9132685633244364e-02 3.9109912461154689e-01 2.1297566293777496e+01 1 1 0
343 1 4.3273463932768630e+00 7.6738218105334943e-01 2.3165913926730013e+01 -6 1 0
452 1 2.5518706096499608e+00 1.9283065519802529e+00 2.2961944725913359e+01 -2 -2 0
226 1 4.3382532675712548e+00 1.5107162255759472e+00 1.8426328022137142e+01 1 1 0
558 2 1.3800647126469918e+00 1.3500153708838283e+00 1.8882075932321897e+01 -3 2 0
220 1 1.4121325047018016e+00 5.3504829599477945e+00 2.1889519737991574e+01 -3 -2 0
553 1 1.7522505448023060e+00 4.9456891062519777e+00 1.9765222727404041e+01 -1 -1 0
345 2 3.3961288433022219e+00 6.7505305093292578e-01 2.3557064362267059e+01 -6 1 0
555 2 1.2652428525374173e+00 5.2426452941924442e+00 1.8915055539217150e+01 -1 -1 0
222 2 2.3712829197076482e+00 5.0646673346038842e+00 2.1847588229679101e+01 -3 -2 0
317 1 3.2660536658767940e+00 5.4423903076426354e+00 2.3465176389874333e+01 -3 -6 0
451 1 1.9219536794891077e+00 3.0971985560618092e+00 2.2187086871000865e+01 -2 -2 0
453 2 1.6186793256274066e+00 2.3440868420050278e+00 2.2699492078031856e+01 -2 -2 0
557 1 2.1914419035068371e+00 9.6546533743220619e-01 1.9318810084885797e+01 -3 2 0
313 1 4.2514628875283229e+00 3.7843793021097116e-01 2.0401450464924423e+01 0 1 0
552 2 3.6565110396496672e+00 3.3748935258649954e-01 1.9707539624640276e+01 -5 1 0
275 1 5.8806644274830644e-01 2.5802097259518688e+00 2.3928361438303618e+01 2 -1 0
331 1 3.0063643828600456e-01 1.6504968554763930e+00 2.2058662993047331e+01 1 1 0
427 1 1.1389179956227378e-01 4.0233026184817229e+00 1.8418561476323440e+01 0 2 0
237 2 2.1280660829333775e+00 1.2922513650202707e+00 2.9575299248027225e+01 2 -2 0
373 1 1.7595999493680547e-01 1.4500317964215541e+00 2.4999767511147244e+01 -2 0 0
273 2 3.8277629310718568e+00 1.0940762723126372e+00 2.6211898748416669e+01 -5 -3 0
422 1 4.7169814206339193e+00 1.0121898124803477e+00 2.6544891759803580e+01 0 -4 0
344 1 3.6363438505851469e+00 6.3331611174659586e-01 2.4585883398040185e+01 -6 1 0
271 1 3.7700584731118911e+00 2.1506528106240874e+00 2.6332665754314451e+01 -5 -3 0
561 2 3.2418714372857655e+00 4.5491551756773410e+00 2.8857984490789246e+01 -5 1 0
316 1 3.3897764151420500e+00 4.8739483334250719e+00 2.4925645001005396e+01 -3 -6 0
450 2 4.3215416929531010e+00 2.5256808431836797e+00 3.0218077642339537e+01 2 1 0
449 1 5.2080618331943827e+00 2.8528215014751508e+00 2.9836629466404435e+01 2 1 0
559 1 2.4324879715357501e+00 5.0514918057659521e+00 2.9162607645924307e+01 -5 1 0
235 1 1.5972960118068096e+00 2.1445367033907354e+00 2.9750331837675606e+01 2 -2 0
396 2 3.0012082266026496e+00 3.6153058125134221e+00 2.6261545760621356e+01 4 -1 0
395 1 2.1572416765362075e+00 3.1319425094975517e+00 2.6197057759890402e+01 4 -1 0
394 1 2.8493105927619515e+00 3.9873782308723773e+00 2.7201382189921755e+01 4 -1 0
236 1 3.0777113352225984e+00 1.4851147210394084e+00 2.9776314629181794e+01 2 -2 0
368 1 3.4572159750196216e+00 3.9362417561059049e+00 2.9555701337885420e+01 -2 -5 0
438 2 1.8212945018482368e-01 2.1838831824965239e+00 2.7838004355859542e+01 -4 3 0
268 1 5.9626082405443703e-01 5.6722299796598952e+00 2.8456201344652889e+01 -5 3 0
318 2 3.6499963993177129e+00 5.6001625436040463e+00 2.4336972542578742e+01 -3 -6 0
323 1 3.3102953156574686e+00 5.2962586713459530e+00 3.4906013252089451e+01 -3 1 0
431 1 2.3841275077916593e+00 3.1301386121809469e+00 3.2867548148376343e+01 -8 5 0
479 1 2.8701952097577976e+00 3.3798509917673090e+00 3.5328887364806398e+01 0 1 0
350 1 3.5671479805247617e+00 2.0678471017500248e+00 3.3236913682907471e+01 -6 4 0
512 1 5.0365960991165668e+00 3.8868130600647848e+00 3.2369225774757147e+01 -3 -1 0
455 1 8.6909811043430085e-01 4.6181176846478795e+00 3.1602403869370988e+01 -2 -1 0
421 1 4.2973883181834296e+00 1.5715359618761724e-02 3.5769163215588364e+01 -1 0 0
194 1 1.2953311643826142e+00 2.9992570073071906e-01 3.0983398889635538e+01 1 -5 0
432 2 2.6553992502581436e+00 2.3277253283820531e+00 3.3419086875639231e+01 -8 5 0
474 2 3.3678128159636661e-01 5.1858952036319217e-01 3.4797504695862060e+01 -1 -1 0
448 1 4.5428840407352311e+00 1.9694741892309118e+00 3.1012623515002705e+01 2 1 0
340 1 1.3647528154357116e+00 4.3932560233783707e-01 3.2422892810091597e+01 -2 -4 0
480 2 2.6941518538176790e+00 4.0410348140215477e+00 3.6067843688928555e+01 0 1 0
291 2 5.0182759364507943e+00 9.6091299270372199e-01 3.2460208388295662e+01 -5 0 0
232 1 3.8201974096869690e-01 3.6106204111472286e+00 3.2625383462996432e+01 1 -1 0
473 1 7.2962686790276621e-02 1.4123425455302907e+00 3.4489922460678812e+01 -1 -1 0
215 1 4.6704256150592736e+00 1.2577678269495249e-01 3.2887970673169988e+01 -11 0 0
456 2 9.2007530747965693e-01 3.6317515359120165e+00 3.1832707134128700e+01 -2 -1 0
322 1 4.4127137812850963e+00 5.6540409325534293e+00 3.3812737318871037e+01 -3 1 0
478 1 1.7166033717461942e+00 4.1416942906262664e+00 3.6161123073194105e+01 0 1 0
381 2 4.7654753921680477e+00 1.4763541789597663e+00 4.0509114056472065e+01 0 0 0
501 2 6.7420195744780620e-01 3.6301471012869108e-01 3.8783565009475531e+01 -3 -1 0
536 1 7.5891723964698343e-03 2.0683979894349869e+00 3.8586439323047507e+01 -2 -1 0
206 1 1.5767337485377235e+00 2.4454499386420017e-01 3.8965508605501391e+01 -2 2 0
499 1 2.1759049032238542e-01 2.9005702904042874e-01 3.9629910535704965e+01 -3 -1 0
383 1 1.3891668316607173e+00 3.5608420195663824e+00 4.2036200409215034e+01 -1 4 0
320 1 5.2158969899676491e+00 4.7739740202363237e+00 3.9517760251899922e+01 -7 0 0
439 1 5.8527614505770453e-01 5.5397872294229629e+00 3.8093546047260539e+01 3 -6 0
523 1 3.5702592666386348e+00 5.4198033087737931e+00 3.7203952730389688e+01 -5 -1 0
441 2 2.8166487851745475e-01 4.9349412815880367e+00 3.7370342602410879e+01 3 -6 0
380 1 4.0362853242594436e+00 1.1300318692717148e+00 4.1085141631564554e+01 0 0 0
346 1 4.3770580385982294e+00 4.9209423048961458e+00 4.1704590637228868e+01 1 -2 0
551 1 3.4908965543756447e+00 9.9981534184384580e-01 3.6678516131189809e+01 -6 5 0
372 2 4.3481513373369687e+00 6.4914546256209782e-01 3.6499297714594256e+01 -4 3 0
484 1 3.4974780667841241e+00 3.6138097420631854e+00 4.7295130144100504e+01 11 -5 0
445 1 4.8144874080118161e+00 1.0805477809230184e+00 4.6691823927604879e+01 -4 3 0
225 2 2.9069072337330615e-01 3.8361858444991404e+00 4.7447664588670328e+01 6 -6 0
274 1 4.5100955085822791e+00 2.5713377907903162e-01 4.4806717272392554e+01 2 -1 0
289 1 7.7822898173757171e-01 4.4149035238957621e+00 4.6795850533946570e+01 0 -2 0
486 2 3.9378002049082732e+00 3.9158602848707411e+00 4.6389255182803865e+01 11 -5 0
370 1 2.4594212139351139e+00 4.7457203303854483e+00 4.5581766168063787e+01 -3 0 0
387 2 1.4563447461226211e+00 1.3435647317588206e+00 4.5593339142035845e+01 1 1 0
242 1 7.7530157424329471e-01 2.6518782456991913e-01 4.4616676835867523e+01 -5 -4 0
408 2 1.5866487423925288e+00 5.1880348900236299e+00 4.5341120825819530e+01 -1 -3 0
276 2 5.1221228968237362e+00 3.7357633220502245e-01 4.3992020840735798e+01 2 -1 0
446 1 1.2052621484807169e+00 4.5783029736405858e+00 4.4681619494504133e+01 -3 3 0
280 1 3.7591298749114195e+00 1.0761431562564046e+00 4.3243260438618442e+01 -1 5 0
385 1 2.2636298936089458e+00 8.4659564994910375e-01 4.5528914333895685e+01 2 2 0
218 1 1.1615803939268343e+00 8.8415932311794554e-01 4.6441480544793578e+01 -1 2 0
492 2 1.9544753962965562e+00 3.6093116413444624e+00 4.2830268550023675e+01 -1 2 0
490 1 2.4171278706192072e+00 2.6863245400633740e+00 4.2852646257046395e+01 -1 2 0
281 1 2.3789893079160449e+00 5.5764727690610327e-01 4.2944816786707641e+01 -1 5 0
364 1 5.0730920036745211e+00 4.7649513154056855e+00 4.7114819009560868e+01 1 0 0
485 1 4.6943343432858482e+00 3.2728035239928768e+00 4.6315825580124290e+01 11 -5 0
447 2 4.2007630505230287e+00 3.1329586470225751e-01 4.6447885304306908e+01 -4 3 0
282 2 3.0395123242170512e+00 1.1945453876157515e+00 4.2622307481045468e+01 -1 5 0
347 1 3.1852884757718685e+00 4.7416209212710152e+00 4.2755636164358414e+01 1 -2 0
348 2 4.0008295182441724e+00 5.2698188493228590e+00 4.2540483363008256e+01 1 -2 0
193 1 3.6388617026787080e+00 1.8594973227730804e-01 4.7251426809411683e+01 1 0 0
66 2 2.7255533231444198e+00 7.4913500330420488e+00 1.4914551756809097e-01 1 0 0
83 2 2.0642053349746217e+00 5.7867750598336496e+00 4.7117498246744551e+00 1 0 0
143 2 1.9218879524293504e+00 9.7091985324771990e+00 4.2429578219600979e+00 1 0 0
64 3 1.0331583659950447e+00 7.7265185087662118e+00 1.0142521335988568e+00 1 0 0
76 3 2.3932026046870072e+00 7.6692161303317592e+00 4.4631319184108644e+00 1 0 0
75 3 1.6321414858336170e-01 5.7749945786963810e+00 5.1101016057906179e+00 1 0 0
61 3 3.9561975166777876e+00 7.5524419063373687e+00 1.5230557432454510e+00 1 0 0
68 2 4.2713202107499715e+00 5.7172677002280450e+00 1.6590086540304219e+00 1 0 0
131 2 6.6743227486482215e-01 9.6202301552200087e+00 1.2020760390037579e+00 1 0 0
78 2 4.2639732232425267e+00 7.5053440136237528e+00 3.7168721762972154e+00 1 0 0
65 2 2.0043691929301306e+00 7.6372780661307740e+00 2.5183743909757439e+00 1 0 0
128 2 4.3089783769006447e+00 9.5070196488333458e+00 1.4937105507475452e+00 1 0 0
84 2 4.2756506273192363e-01 7.7821921155381144e+00 4.7611041308064266e+00 1 0 0
77 2 3.3863609500382532e+00 8.0215506762113336e+00 5.9437387822497501e+00 1 0 0
135 3 3.5449292062644223e-02 9.7211577113494219e+00 4.9773895632370939e+00 1 0 0
71 2 5.6219509045180172e-01 5.9067503247969242e+00 1.0525458243806112e+00 1 0 0
126 2 2.7424293420962860e+00 1.1286348786049647e+01 4.2719693784718515e-02 1 0 0
100 3 5.0336229067426990e+00 7.6875194101509372e+00 1.1396097725101306e+01 1 0 0
155 2 3.2810574010110840e+00 9.6414970533464910e+00 7.8874513563378947e+00 1 0 0
96 2 1.7979513757751955e+00 7.6576035515024765e+00 8.4636300879380872e+00 1 0 0
89 2 4.8663708270902113e+00 7.5343409341512873e+00 9.3949998517296365e+00 1 0 0
147 3 1.5049573397139808e+00 9.5801581548095136e+00 8.5399021277854512e+00 1 0 0
95 2 3.3774733900276592e+00 5.9187149561784382e+00 7.9198120037338056e+00 1 0 0
167 2 4.5924299784917908e+00 9.6072022997710302e+00 1.1383737368160823e+01 1 0 0
88 3 3.8013245472215780e+00 7.6626573402431273e+00 7.8512520430076043e+00 1 0 0
166 2 1.6982907320839165e+00 9.6581715082076567e+00 1.0512584153453274e+01 1 0 0
154 2 4.4317627509093555e-01 9.6617987857419170e+00 7.0662583792975688e+00 1 0 0
108 2 3.1724139195889323e+00 7.6556013475619622e+00 1.1891839606154956e+01 1 0 0
107 2 4.8032174467000761e+00 5.8592154551560682e+00 1.1797519440237782e+01 1 0 0
106 2 1.6510559690078517e+00 5.8499050758830284e+00 1.0665294075135723e+01 1 0 0
159 3 2.7293924296111274e+00 9.5583945577004883e+00 1.2054494458406696e+01 1 0 0
87 3 1.4351879302087978e+00 5.8044733334419334e+00 8.5869284215972641e+00 1 0 0
115 2 7.7399755243468438e-01 7.6868893152121025e+00 1.5041221840692538e+01 1 0 0
405 2 4.6374368847987908e+00 9.5652785345800240e+00 1.7859248678820574e+01 2 2 0
178 2 3.2039887516721244e+00 9.5271280748876777e+00 1.3988790055671585e+01 1 0 0
170 3 1.2591167258027216e+00 9.5189317906115516e+00 1.4850622508371778e+01 1 0 0
403 1 4.4740225955966828e+00 8.6964657429212107e+00 1.8184937291562580e+01 2 2 0
171 3 4.1112082618203898e+00 9.5916786059327066e+00 1.5657090218779484e+01 1 0 0
120 2 4.4500478747496626e+00 7.6561707901523812e+00 1.5718004745477343e+01 1 0 0
165 2 9.8017850255913397e-01 9.5143686493617619e+00 1.2900435134787777e+01 1 0 0
177 2 2.3355129217359223e+00 9.6028035369290130e+00 1.6383163096052002e+01 1 0 0
111 3 4.0991876392299389e+00 5.8620288529085096e+00 1.5799528653827775e+01 1 0 0
213 2 4.6704349425811715e+00 5.7269647657444001e+00 1.7896079997919692e+01 -1 -2 0
419 1 1.9105144196113184e+00 9.0453024863042213e+00 1.7934186126409760e+01 4 -3 0
105 2 8.6908733053015108e-01 5.7689884782926351e+00 1.2972214222530773e+01 1 0 0
118 2 3.1067021451922554e+00 5.7750799598398386e+00 1.4077399386662327e+01 1 0 0
99 3 2.6657914240778888e+00 5.7642899362392761e+00 1.2251377786919740e+01 1 0 0
117 2 2.4423316633172050e+00 5.7355131982692047e+00 1.6430859397701632e+01 1 0 0
326 1 4.7423514923697357e-01 7.8333618219350907e+00 1.8120268627293804e+01 1 -2 0
500 1 1.5018205395140742e+00 9.6478427432142624e+00 2.1587078198769660e+01 -5 -3 0
503 1 2.9836083495819583e+00 8.7892389462340343e+00 2.3449480703199644e+01 -3 -4 0
418 1 1.4907948563438913e+00 9.3739441420680301e+00 1.9535691221901910e+01 4 -3 0
461 1 2.7839723827000014e+00 7.3705591117268181e+00 1.9868768801054213e+01 -3 0 0
502 1 3.0963938063884968e+00 1.0238969706940658e+01 2.2993967851622727e+01 -3 -4 0
504 2 3.0986958576682686e+00 9.3128871237918620e+00 2.2636496991257324e+01 -3 -4 0
460 1 4.2027915592802669e+00 7.4512538006383879e+00 2.0440278424433721e+01 -3 0 0
420 2 1.8851240412325299e+00 8.6805325631934203e+00 1.8866571331511459e+01 4 -3 0
528 2 7.8271905227966099e-01 1.0074006332060716e+01 2.1001818913634569e+01 -2 -4 0
386 1 3.8928133446347322e+00 1.0978765500736847e+01 1.9158204482854909e+01 -1 0 0
401 1 2.8979361996126514e+00 5.7768007249627171e+00 2.1377860809319294e+01 2 0 0
211 1 4.2197349741999073e+00 5.8900332320985793e+00 1.8753574069294125e+01 -1 -2 0
462 2 3.4753519551908392e+00 6.7821519841684950e+00 2.0215789931730907e+01 -3 0 0
469 1 4.7711971947259535e+00 8.9903386948913990e+00 2.1998695884865402e+01 1 -1 0
230 1 4.3278277802567970e+00 6.0744346837125223e+00 2.9254973057643774e+01 1 4 0
229 1 4.7506193632381475e+00 7.4726515512959075e+00 2.9718695775226127e+01 1 4 0
231 2 4.9168829475314970e+00 6.7346706933514913e+00 2.9106767844920007e+01 1 4 0
365 1 3.5694084128828600e+00 7.9443864280268368e+00 2.7697233326307408e+01 4 0 0
515 1 2.1231055055891703e+00 8.0033646024761236e+00 2.5981333822094999e+01 -5 4 0
510 2 2.6012229706837089e+00 8.1895950465068452e+00 2.7679492051621903e+01 4 1 0
514 1 2.2731252187927597e+00 7.1253710981166760e+00 2.4761432747228149e+01 -5 4 0
269 1 1.4677881980519436e+00 6.9527998495630001e+00 2.8530215244402626e+01 -5 3 0
424 1 6.5468092087496610e-01 8.8101365282533806e+00 2.4490315940648532e+01 -6 5 0
516 2 2.1456377111663967e+00 8.0513033846729325e+00 2.5025709218903593e+01 -5 4 0
362 1 2.3930898161911860e+00 9.1766222712046890e+00 2.7684060496474167e+01 5 0 0
410 1 2.7033229235007283e-02 1.0644304204740891e+01 2.5362910042972384e+01 5 -5 0
258 2 2.1826181583694968e+00 1.0770835844358691e+01 2.7684636211145961e+01 -4 2 0
270 2 1.0625291202947946e+00 6.2162209984834984e+00 2.9107130368066908e+01 -5 3 0
409 1 7.6213654113831153e-01 1.1162341099895853e+01 2.6613555548704682e+01 5 -5 0
256 1 2.8168991912630950e+00 1.1379900750563289e+01 2.7281875809288540e+01 -4 2 0
411 2 4.4999439852988266e-02 1.1402053107706031e+01 2.5957739660350988e+01 5 -5 0
257 1 1.9401752185672381e+00 1.1277693580288824e+01 2.8515443507152440e+01 -4 2 0
245 1 2.4601412705870813e+00 9.4366300678284123e+00 3.6321812519422942e+01 -4 -3 0
564 2 2.1501453340156069e+00 9.0785499142728892e+00 3.2369674719076677e+01 1 4 0
278 1 1.7905869252976789e+00 1.1058905326585332e+01 3.4700216359828367e+01 -3 0 0
202 1 6.1575862789464764e-01 6.6876382070801945e+00 3.4097254200427813e+01 -2 1 0
542 1 3.6313381283889417e+00 9.0899240851079846e+00 3.1008925052347259e+01 -2 -1 0
563 1 1.6988955108477761e+00 8.2335542658795902e+00 3.2819444071056999e+01 1 4 0
562 1 1.5787218907390215e+00 9.8361307121867796e+00 3.2012324406157376e+01 1 4 0
204 2 1.1539888791924267e+00 6.6221466372168605e+00 3.3282144355340037e+01 -2 1 0
277 1 2.6345384480750513e+00 9.9775719312464375e+00 3.3859484473712939e+01 -3 0 0
207 2 4.6140774632126522e+00 9.0825175667091749e+00 3.0655182114255851e+01 -5 0 0
475 1 4.6433249811766499e+00 7.6412740834053885e+00 3.5057909260440361e+01 -6 1 0
324 2 3.6839994627979578e+00 6.1105355679548650e+00 3.4350980290735954e+01 -3 1 0
203 1 2.0761845207183987e+00 6.3463756696993956e+00 3.3515213143605600e+01 -2 1 0
279 2 2.6138278228720990e+00 1.0484560562219189e+01 3.4756421819434088e+01 -3 0 0
416 1 7.7074450068543854e-03 6.9784259820060202e+00 3.0619888923816735e+01 -1 2 0
342 2 9.0736972094950785e-01 1.1282640512863486e+01 3.1759793321582123e+01 -2 -5 0
529 1 3.1377746132095768e-01 1.0537581061883749e+01 3.8037610837268637e+01 0 1 0
546 2 1.9098857059534207e+00 9.0663356027679569e+00 4.0917024058422427e+01 -2 -2 0
197 1 1.5397671508676103e+00 7.4456048930469487e+00 3.9761144544679865e+01 -4 -2 0
286 1 4.1509059894566089e+00 7.0420068043906872e+00 4.2085031556286914e+01 -6 -2 0
374 1 3.4573010914870110e+00 1.0192086425878044e+01 3.8401746848554545e+01 0 -2 0
196 1 2.4477770917901429e+00 6.5190088105148716e+00 3.8876512786174018e+01 -4 -2 0
545 1 2.5069184125344650e+00 9.6631519326680539e+00 4.0353174683175375e+01 -2 -2 0
375 2 3.2076030144957164e+00 1.0829198925772168e+01 3.9104611067499462e+01 0 -2 0
288 2 4.1521601819864857e+00 7.9653592091493444e+00 4.1806262769349324e+01 -6 -2 0
544 1 2.6051480444371609e+00 8.6221192044048145e+00 4.1465938220491338e+01 -2 -2 0
524 1 3.9229394828840860e+00 6.9061684186562271e+00 3.7251650637945552e+01 -5 -1 0
198 2 1.5075182958995801e+00 6.6165993167370365e+00 3.9230622093493359e+01 -4 -2 0
262 1 4.1663332942528647e-01 6.3746359495644205e+00 4.1131576134417308e+01 -4 -2 0
246 2 2.6325789483159197e+00 8.9774843877181674e+00 3.7176287371978290e+01 -4 -3 0
244 1 1.7121702462256383e+00 8.9364421694523948e+00 3.7635436206708135e+01 -4 -3 0
334 1 5.1288801683422247e-01 1.0093919567756883e+01 4.1125966027766879e+01 -5 -2 0
525 2 4.0386974857674485e+00 6.0853789552692055e+00 3.7746366130171268e+01 -5 -1 0
531 2 1.3398256403550432e-01 9.5969939814203613e+00 3.7693995685002051e+01 0 1 0
454 1 4.1219032988766058e+00 1.1155187986170535e+01 3.9443140005430287e+01 1 0 0
309 2 1.7213915296381399e+00 7.7949041135759343e+00 4.5503151202153383e+01 -2 3 0
293 1 1.7444581781796189e+00 6.8688197845462433e+00 4.5107377431637389e+01 -1 -7 0
390 2 4.6279578437563279e-01 7.9712664880081165e+00 4.7617167537756629e+01 1 -2 0
307 1 9.7108614706069352e-01 8.2330305370014489e+00 4.4919239679960334e+01 -2 3 0
389 1 1.0911291480262229e+00 7.6563029389859230e+00 4.6851833945129997e+01 1 -2 0
357 2 4.3320080512618739e+00 7.6257497677302437e+00 4.6446801919155327e+01 1 -1 0
406 1 3.2965155973848687e-01 9.9251069088686936e+00 4.7529217834616617e+01 -1 -4 0
393 2 6.9619642798059611e-01 1.1101155162750734e+01 4.3771122268767449e+01 -2 -2 0
272 1 3.5227308826713033e+00 7.7301203292321432e+00 4.7000043774900021e+01 -2 1 0
356 1 4.1617381900782924e+00 8.2065937277856058e+00 4.5680094511066052e+01 1 -1 0
415 1 4.4561808332087960e+00 8.4322580309203445e+00 4.2611556605896993e+01 -5 -2 0
308 1 2.4623321882732052e-01 9.6468124531785833e+00 4.3680709401016692e+01 0 5 0
311 1 5.2138497755545101e+00 9.8721777852632560e+00 4.3856335856332194e+01 -2 -3 0
358 1 5.1337299572548831e+00 1.0436177455352061e+01 4.7086037159677474e+01 -4 -4 0
354 2 1.7895204899775091e-01 1.0843615920261628e+01 4.7103906924558906e+01 1 -2 0
20 2 5.8380109016658110e+00 1.9466250262631437e+00 5.1004440265326121e+00 1 0 0
2 3 6.1304750404040220e+00 1.9961485496049083e+00 6.8190854121202105e-01 1 0 0
7 2 5.7772934952924153e+00 3.8533087095672136e+00 8.7758899450445882e-01 1 0 0
14 3 7.6506856251844351e+00 1.9306324058031754e+00 4.2748519676516228e+00 1 0 0
22 2 9.4606407710416835e+00 2.1112603367077476e+00 3.5263680298845981e+00 0 0 0
3 3 9.1992389348023789e+00 1.8372258289068215e+00 1.6251400662781703e+00 0 0 0
12 2 9.6596788107447562e+00 3.8264302511391661e+00 1.5077433946835717e+00 0 0 0
13 3 5.3267615320321813e+00 3.9092266642031825e+00 5.2661362517116981e+00 1 0 0
19 2 7.1608863495181332e+00 3.8643743655316780e+00 4.4290439056105599e+00 1 0 0
127 2 5.7593456650938846e+00 9.3550147895737013e-02 7.9647333790234132e-01 1 1 0
9 2 7.2885744324719965e+00 1.8157539416424091e+00 2.3011150663097202e+00 1 0 0
132 2 9.5376357985065319e+00 5.1914910469689990e-02 1.4300045298541431e+00 0 1 0
21 2 8.7811206385363008e+00 1.9074098786458995e+00 5.8684519882832031e+00 0 0 0
139 2 7.2283941631942064e+00 7.4550459577965147e-02 4.5293353020037568e+00 1 1 0
133 3 5.2890275983567649e+00 2.4257841342021141e-01 5.1584729083335974e+00 1 1 0
32 2 7.1353378230858535e+00 2.0877986828735589e+00 8.5675044168647698e+00 1 0 0
31 2 8.5362313727652417e+00 3.9330488735085707e+00 8.1236333285350657e+00 0 0 0
33 2 1.0106200923208068e+01 2.0893993342598658e+00 9.4077825332872376e+00 0 0 0
30 2 5.6400533022194468e+00 3.7752555443095193e+00 7.1589260910453580e+00 1 0 0
43 2 9.9316988431004418e+00 3.8513138772812923e+00 1.1685304945921748e+01 0 0 0
26 3 9.0571233491777310e+00 1.9891652134625128e+00 7.8268550675262727e+00 0 0 0
42 2 7.0509707273037483e+00 3.9247740844472339e+00 1.0659059309267857e+01 1 0 0
151 2 8.7046730409356670e+00 1.3899975434570014e-01 7.9184170282579460e+00 0 1 0
25 3 6.6762982001779392e+00 3.9910653659756776e+00 8.7504886353679723e+00 1 0 0
145 3 6.7268722618737193e+00 1.7755659302933574e-01 8.6683381980048324e+00 1 1 0
163 2 9.8748756557367283e+00 9.5451962971709547e-02 1.1537404588490785e+01 0 1 0
162 2 6.8727274397957574e+00 5.9581203018315765e-02 1.0638802260039554e+01 1 1 0
38 3 1.0319182368061563e+01 1.9603928005542879e+00 1.1437834917011219e+01 0 0 0
150 2 5.6665913318566838e+00 1.1387694682552539e-01 7.1074357634374010e+00 1 1 0
93 2 1.0184076338856411e+01 5.6939803630838020e+00 9.3573234733944410e+00 0 0 0
44 2 8.4206352221026677e+00 1.9683697618259830e+00 1.2039342455907027e+01 0 0 0
56 2 9.6144213297970893e+00 1.9597135068387483e+00 1.5652541810744186e+01 0 0 0
157 3 7.8576559701174507e+00 1.2698647153670353e-01 1.2299224682453024e+01 1 1 0
49 3 9.2013978723331515e+00 3.9475170426906425e+00 1.5853212234414311e+01 0 0 0
41 2 6.0855415113360509e+00 3.7512469056648698e+00 1.3051229208469332e+01 1 0 0
54 2 8.3578232012166129e+00 3.9052179744612636e+00 1.4219124934771131e+01 1 0 0
174 2 8.3937674524954566e+00 1.2723900147266393e-01 1.4039714155465242e+01 1 1 0
52 3 6.4102314909423042e+00 3.8423527186725495e+00 1.5081954525429254e+01 1 0 0
59 2 6.1194467281924965e+00 1.9161544291545638e+00 1.5138411368417872e+01 1 0 0
429 2 9.9355064528912145e+00 3.5427964917968477e+00 1.7817747300160047e+01 -1 2 0
53 2 7.5487012279295298e+00 3.8931754878419733e+00 1.6605164972837887e+01 1 0 0
169 3 9.3410719102264075e+00 1.5110131625220749e-01 1.5690479581907628e+01 0 1 0
172 3 6.4792965321803049e+00 1.9515708073481494e-01 1.5049089910318953e+01 1 1 0
173 2 7.6170073453769165e+00 5.7642556605189368e-02 1.6500731442461504e+01 1 1 0
238 1 7.1866673739650189e+00 5.1580623075387013e+00 1.7759208281730036e+01 -6 2 0
37 3 8.0359636199344688e+00 3.8711663341339819e+00 1.2275925195016571e+01 1 0 0
161 2 6.1011645985562240e+00 4.1223263661554765e-03 1.3022363816164114e+01 1 1 0
227 1 5.4855175217177337e+00 2.5118644608802425e+00 1.8108227862564959e+01 1 1 0
428 1 9.4675454940486574e+00 2.9465178732738448e+00 1.8369642721284592e+01 -1 2 0
267 2 6.6291116606938294e+00 2.8273082392446067e+00 1.9895450616901670e+01 -2 -1 0
266 1 7.3776505382486448e+00 2.2016786723881761e+00 1.9739464045530703e+01 -2 -1 0
329 1 6.2759322767727905e+00 2.5153782599162944e-01 2.1734974711621870e+01 -3 5 0
253 1 8.8505004342981000e+00 9.3010770979211477e-01 1.8946826970878259e+01 0 -3 0
186 2 6.2459785333685298e+00 3.2652433665479803e+00 2.3423632666037857e+01 -3 6 0
328 1 5.9201527480473386e+00 1.6192694487654502e+00 2.1369905397766924e+01 -3 5 0
265 1 7.0020458306983118e+00 3.6149742458171619e+00 2.0312668580079713e+01 -2 -1 0
254 1 9.4986874536440649e+00 1.4918945152797327e+00 2.0210984036520603e+01 0 -3 0
255 2 8.8748609267722500e+00 1.7352739606575101e+00 1.9437899711266944e+01 0 -3 0
185 1 6.6600814655524179e+00 3.4862792509807186e+00 2.2538416353832741e+01 -3 6 0
338 1 7.3456544391637939e+00 5.5080257889354929e+00 2.0005471662214848e+01 3 1 0
184 1 6.8168454624408197e+00 2.5012973257875522e+00 2.3813247992361624e+01 -3 6 0
333 2 1.0043501909020467e+01 1.1820020054915805e+00 2.1593087808832063e+01 0 1 0
330 2 5.5547219082415866e+00 8.9259854518302917e-01 2.1893983691818406e+01 -3 5 0
363 2 7.5735039255806509e+00 5.1874680920477729e+00 2.0924824714403684e+01 3 0 0
297 2 9.0692107670896007e+00 2.5025068119697345e+00 3.0010444495045835e+01 -2 -1 0
507 2 7.0062631137192959e+00 5.4711302053967641e+00 2.7575537604871403e+01 -3 2 0
209 1 8.6558214258658275e+00 1.8530143307114819e+00 2.4629170082978149e+01 -1 4 0
367 1 8.7854425520992070e+00 5.3097964496967878e+00 2.4429785808649626e+01 0 -6 0
412 1 6.8041952608229010e+00 3.8933138149206155e+00 2.8312192027546288e+01 3 -4 0
414 2 6.6726936232748306e+00 3.1739330191718294e+00 2.8976646389317011e+01 3 -4 0
413 1 7.4845552094541965e+00 3.0434834180162529e+00 2.9583378888750509e+01 3 -4 0
520 1 9.1166913636708564e+00 5.0078410317592583e+00 2.7442331063075713e+01 0 -4 0
539 1 6.5253562974386119e+00 1.7795255943394319e+00 2.7991667142131213e+01 2 -3 0
521 1 1.0256575671178991e+01 4.9852005511517943e+00 2.6374761721615997e+01 0 -4 0
295 1 9.7004710042942541e+00 2.3095257596311014e+00 2.9233661689828633e+01 -2 -1 0
436 1 9.8887381935106422e+00 4.2013504955358121e+00 2.4563882291908616e+01 -6 3 0
540 2 6.6505719214919576e+00 1.0515608754629977e+00 2.7344284510466238e+01 2 -3 0
208 1 7.4994125686444537e+00 1.3934729939950408e+00 2.5671497497570250e+01 -1 4 0
506 1 6.5285251024137558e+00 5.4547686880755952e+00 2.6673863859018027e+01 -3 2 0
210 2 7.7135432910373902e+00 1.4584395723974259e+00 2.4676385206857745e+01 -1 4 0
369 2 9.7476972839569545e+00 5.2068582036247903e+00 2.4648435517059518e+01 0 -6 0
522 2 1.0040939444583001e+01 4.6577241740696937e+00 2.7283374114959241e+01 0 -4 0
538 1 6.5310557835331879e+00 2.1898273342564367e-01 2.7851874646188968e+01 2 -3 0
188 1 6.3314833993866273e+00 4.5046230223040205e+00 2.4489891378174100e+01 -2 -3 0
189 2 6.5369808463204775e+00 5.3161128382758012e+00 2.5010032798560236e+01 -2 -3 0