LAMMPS data file via write_data, version 5 Jun 2019, timestep = 1020000

546 atoms
3 atom types

0.0000000000000000e+00 1.3959816000000000e+01 xlo xhi
0.0000000000000000e+00 8.9076089999999990e+00 ylo yhi
4.4245400000000146e-01 4.3802945999999991e+01 zlo zhi

Masses

1 1
2 16
3 47.86

Atoms # atomic

110 3 9.1871044345342567e-01 5.4066744901720004e-02 1.0676565517628258e+00 0 0 0
10 2 6.4869363495956618e+00 1.5764996009418515e+00 4.8463243192122016e+00 -1 0 0
131 2 2.2224261286386180e+00 2.9592755723870687e+00 2.7202291620353471e+00 0 0 0
113 2 2.3251088216820910e+00 2.7233283251955329e-03 2.5465572767961433e+00 0 0 0
111 2 4.5351389295471014e+00 1.5159615730217415e+00 1.9302682806803091e+00 0 0 0
118 2 1.8841013785077774e+00 1.4963972074625416e+00 4.9381291504989138e+00 0 0 0
132 2 4.2561051333516042e+00 3.0154199181182584e+00 4.2144593725294293e+00 0 0 0
109 3 3.2306616258876351e+00 1.5495928955698584e+00 3.2451763063950505e+00 0 0 0
20 3 5.6528686590071144e+00 3.0210365551436547e+00 1.2147976548482633e+00 -1 0 0
128 3 1.0084424097758871e+00 3.1050886099858577e+00 1.1618853110768443e+00 0 0 0
8 3 5.5582803288481371e+00 4.7024799579617124e-02 5.7756315393479376e+00 -1 0 0
26 3 5.6678206739447008e+00 3.0737849148209180e+00 5.7230378815576710e+00 -1 0 0
114 2 4.1265033403574902e+00 1.7207620179600761e-01 4.4091155090731773e+00 0 0 0
23 2 6.9161898931493413e+00 3.0638232624914359e+00 2.7349133977144917e+00 -1 0 0
116 3 8.5223140796685415e-01 4.8599035411230521e-02 5.6969197994649328e+00 0 0 0
117 2 4.7028695718481481e+00 1.7893714628605575e+00 6.7989635365038765e+00 0 0 0
16 2 6.5951416836981833e+00 1.7984469321829437e+00 9.5837282516155433e+00 -1 0 0
11 2 6.9669501230126922e+00 2.3568727510711485e-01 7.2464783945237317e+00 -1 0 0
140 3 1.0045199687759818e+00 3.0178093318744308e+00 1.0513139578175245e+01 0 0 0
115 3 3.3605772095837834e+00 1.6079869481232461e+00 8.0912230117544173e+00 0 0 0
124 2 1.8650759909051944e+00 1.5818938910192581e+00 9.5684563750715288e+00 0 0 0
138 2 4.1230550341140813e+00 3.0859135686537162e+00 8.9830392641327617e+00 0 0 0
137 2 2.2466817036512077e+00 3.0849456056868072e+00 7.2008716118574068e+00 0 0 0
32 3 5.6478260783570224e+00 3.0985191190203110e+00 1.0369712484418542e+01 -1 0 0
122 3 1.0933164679617671e+00 7.7540928941969484e-02 1.0524027472830442e+01 0 0 0
134 3 9.8655026989672723e-01 2.9235920513676761e+00 5.8705153376799402e+00 0 0 0
14 3 5.7384526408683119e+00 1.5143701106521740e-01 1.0508525170015586e+01 -1 0 0
119 2 2.3575366306194150e+00 6.0637388182273209e-03 7.2563797240268562e+00 0 0 0
120 2 4.1333991091351558e+00 1.0908254476888354e-01 9.0386033370281442e+00 0 0 0
218 1 1.0542605335986008e+00 3.7775814968889834e+00 1.4309140712810269e+01 0 0 0
123 2 4.5972731499777932e+00 1.6453930061256854e+00 1.1302903068460946e+01 0 0 0
542 1 2.1109297578173756e+00 1.6843339100843406e+00 1.5209383248135309e+01 0 0 0
121 3 3.2997302113063216e+00 1.5449724673611263e+00 1.2792425033376642e+01 0 0 0
543 2 1.7910348338598265e+00 1.5627433491994749e+00 1.4313565534826852e+01 0 0 0
436 1 4.2337573134600506e+00 2.8388730168201923e+00 1.5571805276985657e+01 -2 11 0
144 2 3.9920128037938878e+00 3.0674598767854002e+00 1.3707419000404709e+01 0 0 0
143 2 2.3102121961961699e+00 3.1236393137851723e+00 1.1932856187651765e+01 0 0 0
126 2 4.0741670921268707e+00 5.3073653777604000e-02 1.3655684190495974e+01 0 0 0
463 1 5.6161555453524210e+00 4.0493797322807161e+00 1.4095587990353190e+01 -1 0 0
473 1 5.5175674580073810e+00 1.0388539220138548e+00 1.4305092327767078e+01 3 -5 0
69 2 2.5770712295133252e-02 1.6515619596827542e+00 1.1368865252664680e+01 0 0 0
474 2 6.4070943126781632e+00 1.5429900410155279e+00 1.4377550488300365e+01 3 -5 0
195 2 4.1569338159001541e+00 2.5253202153780441e+00 1.6500801741959965e+01 1 1 0
541 1 1.0471656998200534e+00 2.0939266609010656e+00 1.4115026414718681e+01 0 0 0
35 2 6.8377633974220782e+00 3.0067135953941815e+00 1.1959378668436953e+01 -1 0 0
472 1 6.8289838275880381e+00 1.0864046628178541e+00 1.5167929566145098e+01 3 -5 0
295 1 3.9020266821789629e+00 1.5680209880497249e+00 1.6465498380511644e+01 2 -4 0
178 1 6.9325545144071050e+00 3.9051860215137539e+00 1.4994703987200063e+01 0 0 0
125 2 2.0996901393451952e+00 7.5880978364314983e-02 1.2092345913583381e+01 0 0 0
517 1 4.4536569000556190e+00 5.5061879062558627e-01 2.0162900824707826e+01 -1 0 0
183 2 2.1996497519409047e-01 1.6873541142764246e+00 1.6813108189640605e+01 4 -5 0
464 1 4.7677381782241097e+00 3.8277868872082643e+00 1.9387339688032569e+01 -2 -1 0
519 2 3.6012270904812054e+00 4.0042936908015198e-01 2.0569520565262199e+01 -1 0 0
465 2 3.9580422258508841e+00 4.0955585344352023e+00 1.9827759213227719e+01 -2 -1 0
433 1 3.1925199907505646e+00 4.1175706225988531e+00 1.7291398785154030e+01 -1 7 0
187 1 1.1627024232595844e+00 1.7474612884169145e+00 1.8208022693304809e+01 1 3 0
490 1 1.2799481373731911e+00 1.9911669873980660e+00 2.0653143853108304e+01 -1 3 0
494 1 5.6257074100978910e+00 2.8621835012882428e+00 1.7378853167327815e+01 0 -5 0
188 1 2.1599852545902714e+00 2.8400720479502115e+00 1.8718692914458725e+01 1 3 0
495 2 6.3421421187697593e+00 3.0116319306612613e+00 1.8115610780325337e+01 0 -5 0
189 2 1.6968162618471743e+00 2.0481677569085419e+00 1.8981847241231900e+01 1 3 0
455 1 6.7555517755637879e+00 1.5793420950182784e+00 2.1198483193142511e+01 5 5 0
518 1 2.9960083492338638e+00 8.6733754495082938e-01 1.9891249831894797e+01 -1 0 0
492 2 8.6377695903952734e-01 2.0347018802550547e+00 2.1580188063981630e+01 -1 3 0
454 1 6.7174078863072921e+00 1.8578106282995952e+00 1.9622873862851012e+01 5 5 0
456 2 6.5713699890115365e+00 1.1872554026269719e+00 2.0321332093209925e+01 5 5 0
353 1 3.8312770481593543e+00 3.6883386976449235e+00 2.1554066140131024e+01 -2 11 0
298 1 6.1881567425698236e+00 1.3510045115756328e+00 2.6382404441239910e+01 1 0 0
491 1 1.5494006812092886e+00 1.9522574477089938e+00 2.2300004726305492e+01 -1 3 0
408 2 3.1694675496237092e+00 1.8114852296550474e+00 2.6229001613407007e+01 1 5 0
393 2 2.9507674144502549e+00 9.6659557930961304e-01 2.3331506118471495e+01 0 -13 0
407 1 3.0477549358543539e+00 8.3049602608035344e-01 2.6119785805385721e+01 1 5 0
352 1 4.7091385839923809e+00 3.8320586510572547e+00 2.2817658439459763e+01 -2 11 0
475 1 2.5331759193837264e+00 3.8850373908245084e+00 2.3865697747670716e+01 5 -8 0
299 1 5.0647897400764537e+00 1.8534881202891336e+00 2.5401343945658404e+01 1 0 0
391 1 3.1106047418387526e+00 1.4312787794099105e-01 2.2770197416559505e+01 0 -13 0
354 2 3.8545697911744452e+00 3.4557582990427917e+00 2.2559945447336517e+01 -2 11 0
476 1 2.0350101367729669e+00 4.2036908654203664e+00 2.5386353041693667e+01 5 -8 0
536 1 4.5273130361061753e-01 2.8414686214432123e+00 2.5000895277047540e+01 2 7 0
300 2 5.9602443593814884e+00 1.5433521786289701e+00 2.5399214339528783e+01 1 0 0
477 2 2.0186306662358695e+00 3.5124024120826705e+00 2.4646239292071645e+01 5 -8 0
406 1 2.8361967227714899e+00 2.1848942751793698e+00 2.5400699384358010e+01 1 5 0
392 1 3.7130282776420356e+00 1.5507888997340891e+00 2.3003535466224143e+01 0 -13 0
323 1 6.8529796767423701e+00 3.5794369922251787e+00 2.3462599644155759e+01 8 -4 0
272 1 3.0100727583914727e-01 3.9630235619630945e+00 2.2152950374052931e+01 2 6 0
321 2 6.2577628071808880e+00 8.3387189889091196e-01 2.8086137698126478e+01 -5 10 0
194 1 6.5324429899122096e+00 9.6029310448901573e-01 3.0918221683597434e+01 -2 -6 0
164 1 3.8441176032217106e+00 2.4727124270161944e+00 2.7925887082166327e+01 5 -3 0
177 2 4.7951539080981425e+00 3.0289030370139587e+00 3.1817346701816440e+01 7 -4 0
263 1 7.5764102405254596e-01 2.3869034130996525e+00 3.2037506983650090e+01 -2 3 0
264 2 1.1411201507868358e+00 1.6185486941113092e+00 3.1520084203456118e+01 -2 3 0
165 2 4.2690260205928841e+00 2.9570103286743059e+00 2.8639314191192653e+01 5 -3 0
262 1 1.1843170233652123e+00 1.9724989224059493e+00 3.0593645040055460e+01 -2 3 0
413 1 3.5746741640519392e-01 3.1487546889364335e+00 2.8416012758789449e+01 2 8 0
257 1 2.5040710193403330e+00 3.5370214941923819e+00 2.9481226365603295e+01 1 5 0
320 1 5.6828021153293617e+00 1.6216888778856535e+00 2.8343703014528497e+01 -5 10 0
175 1 4.4151819111218495e+00 2.3148245947881874e+00 3.1247722576081340e+01 7 -4 0
293 1 2.0172154803646078e+00 1.6224263065203168e-01 2.8042873260393900e+01 3 -9 0
258 2 1.5644544823431448e+00 3.8024486886484308e+00 2.9548969074429248e+01 1 5 0
292 1 2.4380415567756222e+00 4.2978103971744563e-01 2.9499881658329901e+01 3 -9 0
294 2 1.6534219297605239e+00 2.4526602678922169e-01 2.8943762605924992e+01 3 -9 0
291 2 9.5165921336661552e-01 4.0912858156335012e+00 3.2904229355513912e+01 3 9 0
453 2 4.0905002868734082e+00 6.5764783788094427e-01 3.0853459674640956e+01 3 0 0
451 1 3.5869260674388346e+00 3.8240679971635655e-01 3.1668066105337015e+01 3 0 0
176 1 4.8051207556025766e+00 2.7446812434059540e+00 3.2685829674854830e+01 7 -4 0
163 1 4.8388197722585877e+00 3.6448032441554581e+00 2.8087036408985838e+01 5 -3 0
289 1 1.5945960163209486e-02 4.3481509545552353e+00 3.2640908296452757e+01 3 9 0
313 1 1.9133551218071672e+00 6.1164781398083723e-01 3.6257661481871409e+01 0 19 0
332 1 4.0031285625194020e+00 1.4040515968382050e+00 3.7442105177747415e+01 -1 -1 0
397 1 1.8571239198058176e+00 1.5839050596888513e+00 3.3513307975254435e+01 2 0 0
200 1 4.5724089484094685e+00 1.7631488911481490e+00 3.4533422268942132e+01 2 -1 0
172 1 2.3270999740112202e+00 2.8718021191255350e+00 3.4162134976783847e+01 3 -4 0
201 2 5.5225124005016468e+00 1.9071441528829198e+00 3.4375306210590878e+01 2 -1 0
199 1 5.8692135691468890e+00 9.9624811069397101e-01 3.4463255356246812e+01 2 -1 0
305 1 5.6884836739949725e+00 2.9621601126615404e+00 3.6432792912848029e+01 -1 -2 0
315 2 9.6577553315239295e-01 2.5730997295850788e-01 3.6164475041316692e+01 0 19 0
438 2 2.6765887211891344e+00 1.9702477078838871e+00 3.3993797712701024e+01 -2 9 0
333 2 3.7235291421420063e+00 6.5863545657784128e-01 3.6804769889223522e+01 -1 -1 0
386 1 5.9277998941780101e+00 4.0352553142274266e+00 3.3734550835174716e+01 5 3 0
480 2 6.2724058370680735e+00 3.2721041004506901e+00 3.7225598880936140e+01 -3 -8 0
4 2 6.4441440097234164e+00 1.6103254292093312e+00 4.3653866259370361e+01 -1 0 -1
112 2 1.6686766312344998e+00 1.6086239528119475e+00 4.3580270594245995e+01 0 0 -1
431 1 3.3270203568819530e+00 3.4227364679936247e+00 4.3220589772781125e+01 0 0 0
432 2 4.1442549798984087e+00 2.9180941045521016e+00 4.2929865192738269e+01 0 0 0
241 1 5.8015930762520673e+00 3.8927571363496476e+00 4.0860804374139022e+01 5 0 0
540 2 4.0079747280496143e+00 2.8572798811380915e+00 3.8650788260514993e+01 3 -4 0
450 2 1.9471700156880238e+00 2.1005617923387634e+00 4.0693226663865538e+01 1 -6 0
523 1 1.5065392666198896e+00 3.9176151970757571e+00 4.0762409884273147e+01 -3 2 0
430 1 4.0278837086980142e+00 1.9001987689713664e+00 4.3058255038887204e+01 0 0 0
449 1 2.0680190452394354e+00 1.7683467317653705e+00 4.1662844800515977e+01 1 -6 0
538 1 3.6413367623338360e+00 2.8800535550222097e+00 3.9544079972306712e+01 3 -4 0
539 1 4.8100779239507476e+00 3.3702336849262058e+00 3.8676354169450732e+01 3 -4 0
269 1 6.4624846025064935e+00 2.0104559691213448e+00 4.1776666156026849e+01 -1 4 0
448 1 1.6038875588395600e+00 1.3341417374579656e+00 4.0227464257477450e+01 1 -6 0
270 2 6.3975344675497956e+00 2.1929955474835690e+00 4.0843723349293235e+01 -1 4 0
441 2 4.3390623998143978e+00 7.8793483405377493e-02 4.2860162262433818e+01 -4 2 0
147 2 4.6334406529970629e+00 7.4491914273330462e+00 2.0665937093689002e+00 0 0 0
150 2 4.2799247529664246e+00 6.0478303788177259e+00 4.3643910995792305e+00 0 0 0
46 2 6.5345263157083684e+00 7.6409596060493863e+00 5.0859789014154133e+00 -1 0 0
38 3 5.6796199695868426e+00 5.9697054468236548e+00 1.2164147015857116e+00 -1 0 0
145 3 3.2869615351407879e+00 7.6542087550950049e+00 3.5794198046519128e+00 0 0 0
136 2 1.8957773023929163e+00 4.4924438527654713e+00 4.8809836069559100e+00 0 0 0
129 2 4.5369955961913320e+00 4.5718355802515767e+00 2.0691127056605541e+00 0 0 0
146 3 1.1148423734183714e+00 6.0914836041074603e+00 1.3393456260963794e+00 0 0 0
149 2 2.3961767559190310e+00 6.0005192632109035e+00 2.6113074282728665e+00 0 0 0
154 2 1.9018748182426697e+00 7.4904305600639924e+00 4.8928330630787409e+00 0 0 0
127 3 3.3855405420993940e+00 4.5467504016295157e+00 3.6385524126697626e+00 0 0 0
41 2 6.8986232279445119e+00 6.0528819124956819e+00 2.6661969485739583e+00 -1 0 0
28 2 6.4847198254294049e+00 4.6191087548275975e+00 4.9247800962095205e+00 -1 0 0
2 3 5.7270422726309809e+00 8.8403289471960083e+00 1.2386538354716872e+00 -1 -1 0
152 3 1.0309076947680236e+00 5.9167344894371947e+00 5.8506404912999592e+00 0 0 0
153 2 4.5743011995648422e+00 7.5756348355888843e+00 6.7077417014890095e+00 0 0 0
34 2 6.5500986321659083e+00 4.6607441901698756e+00 9.7055301269546863e+00 -1 0 0
151 3 3.2858751133254351e+00 7.5359087146564123e+00 8.1331251486679665e+00 0 0 0
160 2 1.8201911514906846e+00 7.5815078925245540e+00 9.6051079970516646e+00 0 0 0
155 2 2.3149871956259855e+00 6.0928633031140356e+00 7.2696585479903302e+00 0 0 0
156 2 4.1286389730030528e+00 6.0471379123337989e+00 9.1000933469825096e+00 0 0 0
158 3 9.9619925155314137e-01 6.0626743639554430e+00 1.0513336883292794e+01 0 0 0
50 3 5.5599687769054658e+00 6.0100251174811454e+00 1.0531475262266421e+01 -1 0 0
52 2 6.5106746806429578e+00 7.5915090139618018e+00 9.6230382991898509e+00 -1 0 0
135 2 4.4955066477302834e+00 4.5308357720710717e+00 6.5127638797030070e+00 0 0 0
142 2 1.8546036508101833e+00 4.5067365138999556e+00 9.5204323034906810e+00 0 0 0
133 3 3.2719354656001935e+00 4.5850231081886559e+00 8.2580151653857357e+00 0 0 0
44 3 5.4725713529516717e+00 5.9544989750817825e+00 5.9363089787617405e+00 -1 0 0
47 2 6.8149659861731324e+00 6.0936031549849607e+00 7.3998013505922184e+00 -1 0 0
159 2 4.6427973098642878e+00 7.6313325997728167e+00 1.1378685283817120e+01 0 0 0
161 2 2.3032833369518122e+00 5.9856453246343575e+00 1.1982618202279832e+01 0 0 0
157 3 3.3450711848415802e+00 7.4821776103274633e+00 1.2749043170712355e+01 0 0 0
546 2 1.8755575352151410e+00 7.5023828779639894e+00 1.4434740653865813e+01 0 0 0
443 1 4.5074475378505268e+00 6.5916753797627585e+00 1.5934245983522551e+01 3 4 0
139 3 3.3290008386972230e+00 4.5553996821587308e+00 1.2864739529103872e+01 0 0 0
545 1 2.2165973881351140e+00 8.0717839981859836e+00 1.5132837949995443e+01 0 0 0
217 1 1.1655615158366988e+00 5.2516264725040838e+00 1.4122974936469157e+01 0 0 0
544 1 1.1244469551710856e+00 7.9827123736090968e+00 1.4124829624945704e+01 0 0 0
162 2 4.1613282972764409e+00 6.0567195967622824e+00 1.3709450042300423e+01 0 0 0
282 2 6.4536186063332703e+00 7.5357761313491824e+00 1.4322566751384704e+01 1 -2 0
280 1 5.5938687358746071e+00 7.0189958440725535e+00 1.4136518817843202e+01 1 -2 0
53 2 6.7955282804236976e+00 6.1879547032965725e+00 1.1909514443951991e+01 -1 0 0
281 1 6.7912790275714805e+00 7.0491570384753777e+00 1.5096884534657212e+01 1 -2 0
180 2 6.3603312081136787e+00 4.5474534015848649e+00 1.4501397928635260e+01 0 0 0
219 2 1.7669016292985738e+00 4.4599871631892398e+00 1.4439480023013758e+01 0 0 0
141 2 4.6483338993788257e+00 4.5803257484328013e+00 1.1464796608958661e+01 0 0 0
87 2 1.0810328264156577e-01 4.5641640860975246e+00 1.1365096897182246e+01 0 0 0
434 1 2.1835347342336933e+00 4.6634109876494287e+00 1.6311735084077977e+01 -1 7 0
105 2 6.6950891828836873e-02 7.5267646938323303e+00 1.1373789565117992e+01 0 0 0
234 2 2.9456766345276817e+00 8.8495334034591053e+00 1.6575067553929117e+01 -2 3 0
247 1 1.8773144499916780e-01 8.4531541958904235e+00 1.8433260290530104e+01 3 -10 0
442 1 3.8454704386314962e+00 6.2405572300906131e+00 1.7268925917959979e+01 3 4 0
249 2 8.9355918608718776e-01 7.8765720183598669e+00 1.8134882126343594e+01 3 -10 0
232 1 2.2464930592626478e+00 8.7001076417267189e+00 1.7229542008745252e+01 -2 3 0
286 1 5.3890655654947075e+00 6.7173007879841311e+00 2.0986444621893835e+01 0 -1 0
248 1 9.2286096215999480e-01 7.1395364936233952e+00 1.8812951808228515e+01 3 -10 0
288 2 4.4395726612006454e+00 6.6549602046973817e+00 2.0739459398701651e+01 0 -1 0
461 1 1.1863171048047711e+00 5.1753274820832367e+00 1.9256127850289566e+01 1 -4 0
179 1 4.0690184114515819e+00 5.0484414280438390e+00 1.9891962310273147e+01 -1 -1 0
435 2 2.5212270753624026e+00 4.8296797871642188e+00 1.7204257107510067e+01 -1 7 0
287 1 4.0009666620230746e+00 7.5327611489861281e+00 2.0471254396239978e+01 0 -1 0
462 2 3.5514791960802577e-01 5.5470177786223971e+00 1.9575428491904574e+01 1 -4 0
374 1 6.2305991274551591e+00 6.2633259341799281e+00 1.7037654034433917e+01 4 1 0
444 2 4.6075974694793524e+00 6.7801051082333705e+00 1.6891920009394273e+01 3 4 0
329 1 3.7859460878358142e-01 5.4544781740730270e+00 2.0548502858476066e+01 0 -3 0
233 1 3.6703124629630857e+00 8.1758538358251389e+00 1.6734852885853286e+01 -2 3 0
222 2 1.4115612196803966e+00 5.4229319968883480e+00 2.6642633736990536e+01 8 2 0
225 2 5.0319786462274951e-01 6.5716189765961168e+00 2.4270985431882039e+01 1 0 0
220 1 8.2464608884117208e-01 5.8116338620903356e+00 2.5963242208075965e+01 8 2 0
458 1 3.5723371990571056e+00 6.8577510141366158e+00 2.3699233825140617e+01 -4 4 0
459 2 2.8722628002012796e+00 6.6132511032900361e+00 2.3018222945845512e+01 -4 4 0
364 1 2.6313196566827464e+00 6.7565458724175382e+00 2.6556567743922749e+01 4 3 0
253 1 5.8877716532847337e+00 8.6206995017063424e+00 2.4667582712810869e+01 5 -2 0
324 2 6.3683610539158755e+00 4.4810409449063364e+00 2.3587905467403079e+01 8 -4 0
271 1 2.1731699364378793e-01 5.4422801026916980e+00 2.2809025614652771e+01 2 6 0
254 1 6.2353015458437966e+00 7.2536211801269070e+00 2.4916769658329947e+01 5 -2 0
457 1 3.3691525678243068e+00 6.5068834964056848e+00 2.2169289402930108e+01 -4 4 0
322 1 6.7663092562997518e+00 5.0609957990631402e+00 2.2942005180257876e+01 8 -4 0
224 1 1.4514698720578354e+00 6.6795000436207070e+00 2.3880156806913078e+01 1 0 0
339 2 5.2188313109142923e+00 4.5925606278133930e+00 2.6153934669819375e+01 1 7 0
366 2 3.3132048214991090e+00 7.5058892860086894e+00 2.6656421262756499e+01 4 3 0
365 1 4.0143276258798304e+00 7.3980629620110010e+00 2.5976224949366717e+01 4 3 0
255 2 5.5132383140563270e+00 7.7126449596737894e+00 2.4528751160524919e+01 5 -2 0
520 1 5.5772293524372500e+00 7.8576220053132859e+00 2.7426241901035912e+01 1 8 0
337 1 5.2103582385752301e+00 5.4971054812530138e+00 2.6467949974147420e+01 1 7 0
338 1 5.8038152511148287e+00 4.6215735598424281e+00 2.5369020407821697e+01 1 7 0
522 2 5.9761491161678997e+00 7.0247484451809754e+00 2.7356110737476484e+01 1 8 0
223 1 2.7278690255379168e-01 7.4846595409362866e+00 2.4207375348087012e+01 1 0 0
275 1 3.8381897792062931e+00 4.5406875335537062e+00 3.1793483080163263e+01 3 7 0
361 1 1.0566853311856403e+00 7.3952443766616653e+00 2.9134154817315157e+01 -4 -2 0
256 1 1.7028183273554240e+00 4.7568946056317847e+00 2.9615123449189941e+01 1 5 0
274 1 3.7196177259048224e+00 5.7839893420340598e+00 3.0946503477739622e+01 3 7 0
452 1 4.5426699441261267e+00 8.7285098462446324e+00 3.0633285296209003e+01 3 -1 0
330 2 5.0559150196132103e+00 7.0169074431998801e+00 3.0100896478060459e+01 -1 -2 0
363 2 7.9455127270504788e-01 6.4925231774295487e+00 2.9131781649095686e+01 -4 -2 0
460 1 5.8469112394098683e+00 6.5207124386257318e+00 3.0428645457539133e+01 1 -2 0
503 1 6.6464917962818868e+00 5.2721936808254268e+00 3.1907887699479183e+01 -1 -11 0
328 1 5.1396453765487546e+00 6.9613701557154402e+00 2.9079692477933175e+01 -1 -2 0
221 1 1.0861359566000537e+00 5.5626268259241627e+00 2.7550321104072641e+01 8 2 0
276 2 3.3686684872588226e+00 5.4396063378130846e+00 3.1812859967151901e+01 3 7 0
290 1 1.6300474217281293e+00 4.6363962450931568e+00 3.2410503408921727e+01 3 9 0
521 1 6.7661137672472584e+00 6.9830150439262795e+00 2.7988708606868073e+01 1 8 0
244 1 3.8108743110537309e+00 7.2834812787600818e+00 3.2570358467936920e+01 5 12 0
246 2 3.4855047984407528e+00 8.0675596305902371e+00 3.2981224821402677e+01 5 12 0
385 1 6.2349185966377974e+00 5.3825025309342847e+00 3.4384137832072661e+01 5 3 0
370 1 4.0442572931784673e+00 6.0202009223819237e+00 3.7205921828740536e+01 -2 4 0
515 1 2.3129243873356877e+00 5.3189321562337462e+00 3.5851498132678181e+01 0 2 0
331 1 3.9977013287311380e+00 8.7780045583816957e+00 3.7296022840025145e+01 -1 -2 0
336 2 4.7568133799862169e+00 7.3504544932312292e+00 3.8049567389138574e+01 4 0 0
372 2 3.6426927891411220e+00 5.3435994500195454e+00 3.6603676950466756e+01 -2 4 0
335 1 5.5367465958022031e+00 6.6519885519364514e+00 3.8150271776938318e+01 4 0 0
534 2 6.4686923799098546e+00 7.3181680483824074e+00 3.5039457149176677e+01 3 -2 0
245 1 3.5574036138970100e+00 7.9732178831793306e+00 3.3918950912971816e+01 5 12 0
387 2 6.6167042358125698e+00 4.7359983506533538e+00 3.3780508197658172e+01 5 3 0
250 1 1.0679957656389485e+00 6.7913543004258905e+00 3.4344916505448097e+01 8 -1 0
514 1 1.2906954077885544e+00 4.8121307684624064e+00 3.4659240844190371e+01 0 2 0
421 1 6.8591402068457601e+00 4.9782775244300845e+00 3.7990955839151745e+01 4 2 0
516 2 1.2933659894845029e+00 5.3129475234162937e+00 3.5545521260823925e+01 0 2 0
371 1 3.7200348905837783e+00 4.5448657969569366e+00 3.7140492709078849e+01 -2 4 0
532 1 6.9516254627808625e+00 7.4764483983675181e+00 3.4215164904562812e+01 3 -2 0
251 1 1.6745051254810146e+00 7.6953446476661735e+00 3.3167973561862020e+01 8 -1 0
252 2 7.7265698292276952e-01 7.4949738703299920e+00 3.3667169043223048e+01 8 -1 0
314 1 8.0928649048095169e-01 8.8691714531041885e+00 3.5232437367011464e+01 0 18 0
482 1 6.0581836341468867e+00 8.8697300803762644e+00 4.0506758794965577e+01 7 -9 0
242 1 6.3975508467097395e+00 4.8681575846620468e+00 4.2001261649147423e+01 5 0 0
481 1 6.1358749087236220e+00 7.3964378397894457e+00 4.1184298732185027e+01 7 -9 0
240 2 2.7993425661210596e+00 6.8157004848777900e+00 4.0177784734404000e+01 0 -6 0
379 1 4.4632004620327166e+00 5.3241501856541058e+00 4.2124426843852731e+01 -1 0 0
439 1 4.8146779220057958e+00 8.5399383236827706e+00 4.2041730963692551e+01 -4 1 0
239 1 3.1050106127501076e+00 6.9768903717401374e+00 4.1093470124075402e+01 0 -6 0
381 2 4.0678656370737540e+00 5.8565759113111771e+00 4.2872697435249528e+01 -1 0 0
380 1 3.1954696741045590e+00 5.4173632183746161e+00 4.3149939413361977e+01 -1 0 0
499 1 1.2141959999057470e+00 7.8958294046318294e+00 4.0039360301593305e+01 -1 3 0
238 1 2.1899105783550246e+00 6.0534657799295690e+00 4.0272605950702626e+01 0 -6 0
148 2 1.8652350699704070e+00 7.5119990368751051e+00 4.3723087109707578e+01 0 0 -1
440 1 3.5881624561460592e+00 8.3853455049617605e+00 4.3077569887885801e+01 -4 1 0
173 1 6.7747252567346122e-02 8.7287231728841146e+00 4.1472592390908716e+01 2 -3 0
483 2 5.5358049716661339e+00 8.1237010600577708e+00 4.0823738318718327e+01 7 -9 0
422 1 6.5187422658456535e+00 5.5581261684294931e+00 3.9522389225853175e+01 4 2 0
22 2 6.3989488963013992e+00 4.5522692420743471e+00 4.3629077317248580e+01 -1 0 -1
243 2 6.0290919249519410e+00 4.8407326181198318e+00 4.1060567887935967e+01 5 0 0
525 2 1.0824385624723447e+00 4.8431105462851338e+00 4.0687343732723754e+01 -3 2 0
524 1 4.7320877472798922e-01 4.9876903103406489e+00 4.1494652913174541e+01 -3 2 0
40 2 6.4998503081484369e+00 7.4383545823192447e+00 4.3623753242929318e+01 -1 0 -1
334 1 4.0672851614995409e+00 7.1750327897487818e+00 3.8822397887571611e+01 4 0 0
501 2 5.0076078154187820e-01 8.5757161691904127e+00 4.0048190062304172e+01 -1 3 0
130 2 1.8767678976238991e+00 4.4920049440987286e+00 4.3764475064627035e+01 0 0 -1
64 2 1.1252225694342817e+01 1.5695268805522880e+00 4.9195531651894768e+00 -1 0 0
3 2 9.2258658314642599e+00 1.6033312026135416e+00 1.9142193727003622e+00 -1 0 0
6 2 8.7776877485909193e+00 1.7638596627215355e-01 4.4007243458860943e+00 -1 0 0
77 2 1.1490824649554508e+01 3.1654074996800863e+00 2.7204100178691077e+00 -1 0 0
1 3 8.0877231014953193e+00 1.5812859509756565e+00 3.4869060427843843e+00 -1 0 0
24 2 8.8808136649214706e+00 3.1024591535672510e+00 4.2807759674232573e+00 -1 0 0
74 3 1.0360887791495626e+01 3.2423428624297075e+00 1.1273650900006149e+00 -1 0 0
55 3 1.2595291899537342e+01 1.7204736979503279e+00 3.4708501448098392e+00 -1 0 0
59 2 1.1491051167332831e+01 1.2428619662979137e-01 2.6133690856115308e+00 -1 0 0
78 2 1.3511008842393576e+01 3.0894903975499277e+00 4.3361568545515956e+00 -1 0 0
57 2 1.3811520924686139e+01 1.4457012078245743e+00 2.0230912138682950e+00 -1 0 0
56 3 1.0460971539934445e+01 2.6891344029423231e-01 1.1901313932375086e+00 -1 0 0
5 2 7.0362664758308107e+00 1.1457994558606725e-01 2.4814174416516650e+00 -1 0 0
80 3 1.0397448275474352e+01 3.0419906949521516e+00 5.7039906509699465e+00 -1 0 0
60 2 1.3497788129243594e+01 2.9150480094386433e-01 4.3058791101086848e+00 -1 0 0
84 2 1.3441147068871656e+01 3.0862036541161455e+00 9.1235886143351639e+00 -1 0 0
7 3 8.1151739027523941e+00 1.5323873383516193e+00 8.1567634726645633e+00 -1 0 0
61 3 1.2650768840037999e+01 1.6586152697322454e+00 8.2342295667194794e+00 -1 0 0
88 2 1.1098584771558796e+01 4.4044969968761363e+00 9.5709419228865560e+00 -1 0 0
83 2 1.1643131294439991e+01 3.0837176722037962e+00 7.1592311645860107e+00 -1 0 0
30 2 8.8883115710329079e+00 3.0253264719584201e+00 8.8048367723138163e+00 -1 0 0
9 2 9.4072943223034144e+00 1.6085365907178482e+00 6.6411310340116065e+00 -1 0 0
70 2 1.1267101945531042e+01 1.5599802476207552e+00 9.6911878315032531e+00 -1 0 0
86 3 1.0287059973838957e+01 3.1026667209852699e+00 1.0701320225277467e+01 -1 0 0
62 3 1.0220446053379115e+01 1.4878449256438836e-02 5.9315025837141313e+00 -1 0 0
68 3 1.0376284497132175e+01 1.6405061949482214e-01 1.0559710548641990e+01 -1 0 0
65 2 1.1704116261908435e+01 1.1240767500195120e-01 7.2344325676823376e+00 -1 0 0
29 2 7.0394939822444016e+00 3.2349163016686218e+00 7.2063777172393335e+00 -1 0 0
63 2 1.3857725200841966e+01 1.6151628801603275e+00 6.5975650351430009e+00 -1 0 0
12 2 8.8358530070903303e+00 8.4986287119082904e-02 9.1049751461902790e+00 -1 0 0
66 2 1.3427022737219694e+01 8.9720025824146177e-02 9.1669987961442772e+00 -1 0 0
496 1 1.1197608048880680e+01 3.7332571876218688e+00 1.5139523609413455e+01 -1 0 0
212 1 8.9799991738029554e+00 8.7473668225384460e-01 1.5740840649371098e+01 4 -5 0
466 1 8.9604238474523878e+00 3.0827095772617694e+00 1.6237497511504046e+01 1 1 0
497 1 1.0101862827016998e+01 4.0587998916628560e+00 1.4192071647229929e+01 -1 0 0
192 2 1.1185774701592086e+01 1.4548438421776591e+00 1.4372158150115784e+01 -1 1 0
13 3 8.0094019868910298e+00 1.7145393642674416e+00 1.2746477759583215e+01 -1 0 0
90 2 1.3568663991328755e+01 2.9992819888505666e+00 1.3639953155444191e+01 -1 0 0
191 1 1.1433095962929658e+01 8.8611302307936901e-01 1.5117237137767709e+01 -1 1 0
89 2 1.1597303548209242e+01 2.8758677998310618e+00 1.2059057387124875e+01 -1 0 0
36 2 8.6932120115597300e+00 3.1317802741048477e+00 1.3683379706217890e+01 -1 0 0
67 3 1.2747506914151989e+01 1.4974429187309837e+00 1.2840686430501966e+01 -1 0 0
190 1 1.0392269169938638e+01 1.0371427146934487e+00 1.4004476485648484e+01 -1 1 0
18 2 8.8307429939760365e+00 1.8046797554839875e-01 1.3560202014993127e+01 -1 0 0
213 2 8.4323228510400714e+00 1.2440576125054823e+00 1.6520757972033451e+01 4 -5 0
498 2 1.1062969940935941e+01 4.3979222773820750e+00 1.4399992331129237e+01 -1 0 0
17 2 6.9804221585115345e+00 1.3079314751873752e-01 1.1905161426092786e+01 -1 0 0
15 2 9.3215414736458371e+00 1.6718067515723691e+00 1.1369984830464153e+01 -1 0 0
171 2 1.1844290681272300e+01 1.3022533027203761e-01 1.6689115718642988e+01 -1 -5 0
467 1 9.5451691073053535e+00 3.7574835021773576e+00 1.7567831957812963e+01 1 1 0
424 1 1.1458470470575497e+01 3.4348653114011682e+00 1.8437395167709870e+01 1 -7 0
368 1 1.3257474182882881e+01 8.6491384151801765e-01 2.1309672279852418e+01 -2 2 0
170 1 1.1337808301987970e+01 5.3780948663982919e-02 1.7582673463565420e+01 -1 -5 0
426 2 1.0539201625021690e+01 3.1660746059305107e+00 1.8731920621084292e+01 1 -7 0
359 1 9.8580082387630572e+00 4.1272544888349305e+00 2.1709765245049336e+01 -1 -2 0
357 2 1.0700844476055808e+01 3.4512265223330457e-01 1.9174768965199878e+01 0 3 0
182 1 1.3946216046586692e+01 2.6035889111594095e+00 1.6975386916536042e+01 3 -5 0
358 1 9.8142625426136831e+00 4.0956798514732009e+00 2.0249784370804647e+01 -1 -2 0
425 1 1.0579026207229928e+01 2.1808706694758651e+00 1.8885839002157731e+01 1 -7 0
355 1 1.1279468864519256e+01 1.9127168693486837e-01 1.9935442016759872e+01 0 3 0
493 1 7.2064947493869624e+00 3.1219837220879678e+00 1.7641917701703445e+01 0 -5 0
279 2 1.2998043218847959e+01 4.0996626722202647e+00 1.7390960235117806e+01 5 -7 0
211 1 8.4376135083184582e+00 5.8283085316580718e-01 1.7199015340840308e+01 4 -5 0
181 1 1.3328430351206507e+01 1.2981901296698053e+00 1.6756643138430597e+01 3 -5 0
369 2 1.2474852048094398e+01 2.3495348678015104e-01 2.1401948347941985e+01 -2 2 0
468 2 8.9826856401120505e+00 3.9327694356194098e+00 1.6770240429425211e+01 1 1 0
297 2 9.1293179716634913e+00 1.3191451414219151e+00 2.5391148218283039e+01 3 -4 0
267 2 8.0675872499986756e+00 3.3083820087503653e+00 2.6981072711372306e+01 2 -9 0
511 1 1.0958824124201078e+01 2.3878040503831239e+00 2.3024646889307906e+01 -2 -5 0
398 1 9.8510586075431306e+00 1.6695625595953931e+00 2.4848815576550759e+01 3 2 0
296 1 8.8299065795385818e+00 2.0205619563130299e+00 2.5999251098641437e+01 3 -3 0
202 1 9.0610147822675682e+00 1.1194574204604653e-01 2.7223456487656254e+01 -2 4 0
513 2 1.0389314338337762e+01 1.7098190586973059e+00 2.2570740717076085e+01 -2 -5 0
409 1 1.2435294944365420e+01 4.2824868020269458e+00 2.3151700873303117e+01 -3 8 0
284 1 1.3124868605225380e+01 6.5072923807064520e-01 2.4522343595154190e+01 1 -1 0
236 1 7.3862186669169132e+00 1.4496816931165100e+00 2.3405205853189877e+01 -3 -5 0
537 2 1.3621436792757724e+01 2.3341696347944425e+00 2.5432458098209878e+01 1 7 0
512 1 1.1197767915327772e+01 1.1732439269602528e+00 2.2172348447105584e+01 -2 -5 0
535 1 1.2854269942566363e+01 2.9460508854806484e+00 2.5111938122225286e+01 1 7 0
235 1 8.4087092042926042e+00 2.1003078080767321e+00 2.2498398073342518e+01 -3 -5 0
265 1 8.4781562798995314e+00 4.2947589596906131e+00 2.7109143995495934e+01 2 -9 0