LAMMPS data file via write_data, version 5 Jun 2019, timestep = 1020000

504 atoms
3 atom types

0.0000000000000000e+00 1.0755688111543584e+01 xlo xhi
0.0000000000000000e+00 9.7477520000000002e+00 ylo yhi
0.0000000000000000e+00 4.8622300000000003e+01 zlo zhi

Masses

1 1
2 16
3 47.86

Atoms # atomic

36 2 2.7215386008044011e+00 9.5091007066734479e-01 5.5870759853132963e+00 0 1 0
28 3 2.6679096082449685e+00 2.8918776859636490e+00 5.5262376630691481e+00 0 1 0
15 3 3.9822310766475324e+00 4.7494559770325068e-01 4.1820776549375038e+00 0 1 0
4 3 2.6354624803652698e+00 2.9700497465950062e+00 2.4317656368663029e-01 0 1 0
23 2 4.1648729005817158e+00 2.5170504213871956e+00 4.3063056148937875e+00 0 1 0
5 2 4.0468613921917891e+00 3.3331146550715567e+00 1.4402308588778030e+00 0 1 0
84 2 5.3738377272632984e+00 1.1053621031371694e+00 2.7667824988696870e+00 0 1 0
17 2 1.4208361208217080e+00 3.3534835717219997e+00 4.2417420450816889e+00 0 1 0
3 3 1.2913550026786109e+00 3.6448494317610974e-01 1.5388889527898593e+00 0 1 0
11 2 1.4400034846161931e+00 2.4656391648076226e+00 1.5696480145560143e+00 0 1 0
16 3 1.7408322446691410e-01 3.0128117174366782e+00 2.8936575270538345e+00 0 1 0
30 2 2.7985634766898939e+00 4.8529604919294185e+00 5.4933214557939358e+00 0 1 0
24 2 3.6556131852342598e-02 9.7567560982466772e-01 2.9847571630243053e+00 0 1 0
22 2 2.7523216251203682e+00 5.5857929685035258e-02 2.8891170141476645e+00 0 2 0
12 2 2.5952777232442008e+00 9.1800962572743261e-01 2.6482847771934537e-01 0 1 0
6 2 2.5870943658193015e+00 4.7793800240860582e+00 9.1421247157157381e-03 0 1 0
60 2 2.6777987780095707e+00 9.0148262616047170e-01 1.0767154591063973e+01 0 1 0
58 2 3.4258576015954216e-02 1.0053595907677536e-01 1.0976165961036067e+01 0 2 0
52 3 2.8942826435955546e+00 3.0251480591178384e+00 1.0898477017548524e+01 0 1 0
41 2 1.4857268417515057e+00 3.3109327732001108e+00 9.5656075579649862e+00 0 1 0
29 2 4.1119822445497851e+00 3.3868565045681001e+00 6.8506158246472673e+00 0 1 0
39 3 4.1389604508291109e+00 4.1141424202385662e-01 9.4500198169275329e+00 0 1 0
27 3 1.2816724505867172e+00 4.5964455257231901e-01 6.8718284375910823e+00 0 1 0
47 2 4.2188530416829737e+00 2.5501562925843331e+00 9.6106038932526054e+00 0 1 0
35 2 1.3376605497389018e+00 2.4788142421043498e+00 6.9265436748349529e+00 0 1 0
46 2 2.7371184907396615e+00 9.4272896120923266e-02 8.2063101889289349e+00 0 2 0
40 3 1.2044184335645690e-01 2.9710835893549139e+00 8.2802309042817530e+00 0 1 0
53 2 4.3344796924438258e+00 3.4385921478151857e+00 1.2269000621132410e+01 0 1 0
136 1 4.0281732656772897e+00 3.2845217195130250e+00 1.5724718555177640e+01 0 0 0
362 1 1.0173524910082414e+00 3.8289298280124027e+00 1.3219245487568557e+01 0 1 0
144 2 3.1644204101630486e+00 7.1307144512332132e-01 1.3549685763524504e+01 -4 4 0
130 1 2.9271783167103020e+00 2.4535987002353390e+00 1.7634587296683666e+01 4 -1 0
138 2 4.7532461581579062e+00 3.1698320754717284e+00 1.5022662626169197e+01 0 0 0
132 2 3.0664223580142234e+00 3.3678803859810489e+00 1.8051808593062372e+01 4 -1 0
137 1 4.9105273919005015e+00 4.1080563944769608e+00 1.4713145925301308e+01 0 0 0
273 2 2.5735993814952240e-01 6.7904133903240771e-01 1.3819033676937460e+01 0 2 0
142 1 2.6972871626871626e+00 1.0728836581238275e+00 1.4352401349298884e+01 -4 4 0
319 1 4.1361647545134410e+00 2.8462067855629596e+00 1.3013585910488572e+01 0 1 0
282 2 5.2235900403792113e-01 4.5820688588691398e+00 1.3641526153497002e+01 4 -5 0
414 2 2.1996208985875207e+00 1.4401966072124648e+00 1.5877426369680331e+01 -2 -1 0
413 1 1.5088469730726131e+00 2.1679933993579121e+00 1.6061061272093681e+01 -2 -1 0
320 1 4.2411869590074254e+00 5.3996161685312993e-01 1.3623113819809211e+01 0 1 0
59 2 1.5241627861566844e+00 2.5173060587335030e+00 1.2197608010849772e+01 0 1 0
412 1 1.7422013508718921e+00 5.9526379218594649e-01 1.6048214563279505e+01 -2 -1 0
379 1 3.0088161022218024e-01 1.1273432067581643e-01 1.4580748056276191e+01 1 2 0
51 3 1.6041042576573448e+00 5.9673194491412374e-01 1.2163361295043256e+01 0 1 0
215 1 3.0127700843073951e-01 3.8273048802459284e+00 1.8115493515139310e+01 1 6 0
285 2 7.1195567748615698e-02 3.2111626096460379e+00 1.6275388277029560e+01 0 -2 0
284 1 4.2524442035747689e-01 3.8114946059428236e+00 1.5560263377160512e+01 0 -2 0
389 1 3.9197415800242368e+00 4.6601271875692838e+00 1.8130115151639487e+01 3 -3 0
242 1 2.1222032338545000e+00 4.0449099818577228e+00 2.0589348317347930e+01 10 4 0
337 1 2.0123843093013594e-01 2.1057618405438361e+00 1.9603904669817570e+01 3 -5 0
174 2 5.3219039683547678e+00 2.2947009024501517e+00 2.0559972145975525e+01 3 -4 0
393 2 1.9668130861548152e+00 1.4950314468565860e+00 2.3254245142366557e+01 -1 0 0
429 2 3.7685687104289771e+00 4.1805438339215206e-01 1.8631103035488628e+01 0 -9 0
392 1 2.1856263010402905e+00 2.1564990953456897e+00 2.2563258693561682e+01 -1 0 0
428 1 3.9490767228720181e+00 1.2120508082282313e+00 1.9145857891741660e+01 0 -9 0
243 2 2.6728614075570358e+00 3.8417955885029333e+00 2.1344641774696434e+01 10 4 0
419 1 3.6110858082774895e+00 5.3826666235523468e-01 2.3739217506841484e+01 -3 2 0
241 1 3.4319479408374609e+00 3.5233303209979274e+00 2.0883599274055477e+01 10 4 0
391 1 1.5796610885009648e+00 6.9275977289173896e-01 2.2766364062815292e+01 -1 0 0
216 2 6.6895672814286722e-01 3.9068688730370464e+00 1.8975304580497561e+01 1 6 0
339 2 6.3606385740076939e-04 1.2937369453636975e+00 2.0188728000150739e+01 3 -5 0
214 1 1.9440913412036051e-01 4.6699820922635000e+00 1.9460818858288796e+01 1 6 0
131 1 2.1979430424444599e+00 3.6055595439941501e+00 1.8380190379079529e+01 4 -1 0
427 1 4.6741332122521522e+00 2.4561388996218225e-01 1.8265040768111614e+01 0 -9 0
490 1 2.4980598462078105e+00 1.8728031233768956e+00 2.9637760289484561e+01 1 10 0
430 1 5.2707099313148706e+00 3.8913709776755029e-01 2.7733495081620422e+01 -1 0 0
176 1 1.1189834869161588e+00 3.4675262605988699e+00 2.5581335012839340e+01 -3 1 0
322 1 2.2816685223172675e-01 1.7332398715543214e+00 2.6272680923420719e+01 0 7 0
260 1 4.2792334994139187e+00 3.0880257476483193e+00 2.7978707749567473e+01 1 -2 0
308 1 4.8273298947104648e-01 4.2456770101109287e+00 2.8833214641531985e+01 6 5 0
177 2 1.4961894803053470e+00 2.5009535177649997e+00 2.5763792164987333e+01 -3 1 0
175 1 1.5370174635081446e+00 2.0239566902772554e+00 2.4906064617778970e+01 -3 1 0
261 2 3.7383421558452357e+00 2.2967402179471748e+00 2.8215296405051550e+01 1 -2 0
259 1 2.9758478807372573e+00 2.4630517691389384e+00 2.7557279895108632e+01 1 -2 0
238 1 7.1559715676696597e-02 2.4266489795409605e+00 2.9602114353641831e+01 4 -7 0
418 1 4.7936010737889179e+00 4.5848471819956027e-01 2.4559705431980259e+01 -3 2 0
498 2 2.4839798575867738e+00 3.9008785319519617e+00 3.3400654748956640e+01 3 1 0
340 1 4.1648313787374294e+00 1.4109689797930514e+00 3.2017448828488604e+01 0 5 0
344 1 4.9086561883619773e+00 2.5570668858998942e+00 3.2526850409571693e+01 6 2 0
484 1 3.4448124199482897e+00 4.8181565643525666e+00 3.4302001514298297e+01 -6 -2 0
497 1 3.2273936178029072e+00 3.2014159628777259e+00 3.3176534633478596e+01 3 1 0
492 2 1.8965017593659645e+00 2.0477458127904540e+00 3.0508193317581664e+01 1 10 0
476 1 6.4810431503298049e-01 2.7539705764865499e+00 3.6009118829783127e+01 3 6 0
345 2 4.1207797433090576e+00 2.0378790304072858e+00 3.2717849385219822e+01 6 2 0
296 1 3.1164669513858695e-01 2.2363740243897006e+00 3.1564239293430251e+01 -7 -10 0
496 1 1.9566784149971468e+00 3.5500671067818699e+00 3.4068025451241276e+01 3 1 0
477 2 4.6727344861906284e-01 3.0361664625389051e+00 3.5050052345557496e+01 3 6 0
491 1 2.3073316634394452e+00 2.8813489847188474e+00 3.0819379152940147e+01 1 10 0
295 1 3.6296767450923062e-01 2.2339610238295586e+00 3.3130842182695837e+01 -7 -10 0
475 1 1.5801133688788258e-01 3.9721497597237119e+00 3.5061077913549937e+01 3 6 0
244 1 1.7053595934534144e-01 2.2325152950217677e+00 3.8397264832518196e+01 0 -4 0
481 1 4.6690725356688105e+00 4.5288293762093756e+00 3.9377057360334454e+01 1 -4 0
232 1 4.0471908466180135e+00 2.5311420834818046e+00 3.8965764443142376e+01 -2 -4 0
483 2 5.1700846167694223e+00 4.1978936967380864e+00 3.8582443964376118e+01 1 -4 0
422 1 2.7947837230277397e+00 6.6087935061824543e-01 3.8892145889856060e+01 -6 -3 0
233 1 2.4698584583891940e+00 2.6196556057251281e+00 3.8776639688733958e+01 -2 -4 0
234 2 3.1732328786669504e+00 2.1641225098553885e+00 3.9362810719059453e+01 -2 -4 0
184 1 3.2796878052549561e+00 2.6995696474832518e+00 4.1208953156397016e+01 -4 -2 0
246 2 8.4845974977132244e-01 3.0352404037261937e+00 3.8294281249059509e+01 0 -4 0
245 1 3.2090897539446239e-01 3.8359543333098300e+00 3.8559502171367875e+01 0 -4 0
186 2 3.4330020094837295e+00 2.2233863050325842e+00 4.2011754306500961e+01 -4 -2 0
482 1 4.8822683320952986e+00 4.7807127449170679e+00 3.7812197482462082e+01 1 -4 0
225 2 1.2969753028028002e+00 2.8860613882141530e+00 4.7315746976325741e+01 0 1 0
342 2 4.1805394375236817e+00 2.5496271851025765e+00 4.7432896757443274e+01 0 2 0
192 2 4.3769024996861150e+00 4.2113416685253959e+00 4.5212156417095464e+01 -4 -4 0
293 1 2.3215905059007729e+00 1.1408253932843677e+00 4.2668935549344965e+01 1 2 0
500 1 1.2923711485196236e+00 2.0112633861843490e+00 4.6939201027561779e+01 1 1 0
220 1 4.3958589713601413e+00 1.7385278225537619e+00 4.6907477133783324e+01 0 1 0
294 2 1.3863986697830322e+00 9.0388699331843103e-01 4.3166014604714249e+01 1 2 0
191 1 3.8782325894313527e+00 3.5869392199309273e+00 4.5827708381259704e+01 -4 -4 0
469 1 1.6207449007209480e+00 4.8639525247230031e-01 4.5020266546875654e+01 4 0 0
190 1 3.7030533003525625e+00 4.5587344682829647e+00 4.4663358170186491e+01 -4 -4 0
146 1 1.2341556721731355e+00 4.2166348010546422e+00 4.2921696098851918e+01 -3 -2 0
471 2 1.1204350177658073e+00 4.0412361667839580e-01 4.5944906011359244e+01 4 0 0
147 2 2.0143160058861116e+00 4.6927092559423711e+00 4.3350506729035459e+01 -3 -2 0
292 1 9.3748016512041976e-01 1.7475232213438874e+00 4.3009184453726171e+01 1 2 0
343 1 5.1526450351061523e+00 2.8188374138373464e+00 4.7623291086028964e+01 6 -1 0
453 2 4.3183162366388830e+00 3.7343022363907319e-01 4.5311810765628664e+01 1 -4 0
451 1 5.3284146871217253e+00 3.0611924808125557e-01 4.5401170104271024e+01 1 -4 0
299 1 9.4993027774860117e-01 4.6166320686706035e+00 4.6473040023110826e+01 -2 -6 0
452 1 4.0582020283410900e+00 4.8155104391798004e-01 4.4355981935264360e+01 1 -4 0
341 1 3.1219755031461358e+00 2.7067050836478496e-01 4.8343602046435137e+01 0 2 0
185 1 3.2823790204583614e+00 2.9083634574000881e+00 4.2690717062874093e+01 -4 -2 0
13 3 1.4597904005757449e+00 5.4267686399234742e+00 4.1726508024203408e+00 0 1 0
1 3 3.9462135232955764e+00 5.3861372040002733e+00 1.2989175778738840e+00 0 1 0
19 2 1.3866501129170976e+00 7.3915232018540422e+00 4.2597300540062708e+00 0 1 0
18 2 3.7267995412249601e-02 4.9503219873543838e+00 2.9498690532424154e+00 0 1 0
9 2 1.2443198628054550e+00 8.2399495839920611e+00 1.7582795028391962e+00 0 1 0
14 3 2.8613991683172419e+00 7.7947456385231213e+00 2.8863238671021656e+00 0 1 0
20 2 2.6416554286761209e+00 5.8107520011275939e+00 2.7838733519211196e+00 0 1 0
26 3 5.0265771664929619e-02 7.7211459405024403e+00 5.6070077694938103e+00 0 1 0
7 2 3.7770814680207976e+00 7.3297160445410281e+00 1.3369620282396681e+00 0 1 0
21 2 4.1162586727869241e+00 8.1347996878736915e+00 4.1578096670756510e+00 0 1 0
78 2 5.2412610103416730e+00 5.0591225841697769e+00 2.8534375275099420e+00 0 1 0
224 1 9.4939922231301588e-01 5.1727950308784374e+00 3.2052062541498855e-01 0 1 1
2 3 1.0301869263475853e-01 7.8261360342808475e+00 3.3238899018799750e-01 0 1 0
8 2 8.4297923385134740e-02 5.7629085979952386e+00 3.2021628488384618e-01 0 1 0
34 2 3.6611356862349537e-02 9.6828226205489134e+00 5.5644158684533735e+00 0 1 0
44 2 2.7973830044632222e+00 5.8457858214595619e+00 8.2511269149531419e+00 0 1 0
37 3 1.4197840844370357e+00 5.3753497175787990e+00 9.6544565941606653e+00 0 1 0
31 2 3.8944740081423630e+00 7.4737951950125829e+00 6.7994927491513897e+00 0 1 0
50 3 2.5532795638138722e-01 7.8617009268134996e+00 1.0998311068306140e+01 0 1 0
25 3 3.9995468002656036e+00 5.4838099900056037e+00 6.8173445823010379e+00 0 1 0
38 3 2.7451105158504023e+00 7.8098130919680848e+00 8.2377215411769953e+00 0 1 0
45 2 4.1197524033900770e+00 8.1607068584667211e+00 9.4268514692592102e+00 0 1 0
33 2 1.3022344273699442e+00 8.1014452276004842e+00 6.9603857522976043e+00 0 1 0
43 2 1.5236243078945477e+00 7.4550620977845012e+00 9.7799055495697367e+00 0 1 0
56 2 1.8548565590872509e-01 5.7776037582593025e+00 1.0998140231470661e+01 0 1 0
54 2 2.7175638250111263e+00 4.9450682365863683e+00 1.1021006905354454e+01 0 1 0
118 2 5.3549736991835752e+00 9.7464991582589562e+00 1.0907044918845660e+01 0 1 0
42 2 2.1406508524789827e-01 5.0125594776715081e+00 8.2324707331169300e+00 0 1 0
55 2 4.0972801099168050e+00 7.4574024958125706e+00 1.2132357884197177e+01 0 1 0
280 1 1.2970054540049885e+00 5.2268722852981204e+00 1.3776192505132761e+01 4 -5 0
195 2 7.9705966358887792e-01 8.5883110648106644e+00 1.5876767445022326e+01 2 -3 0
290 1 3.9557100780787242e+00 7.5384027410283361e+00 1.5824966841216940e+01 -1 -9 0
444 2 2.8415731314627846e+00 5.9189714718894351e+00 1.3738448838286990e+01 1 1 0
291 2 3.0975194865065103e+00 7.0843418105900495e+00 1.6181855547868562e+01 -1 -9 0
193 1 1.5992468186949131e+00 8.0236898364472662e+00 1.6033944296652912e+01 2 -3 0
289 1 3.3979598346714424e+00 6.5525464330405399e+00 1.6973540996795805e+01 -1 -9 0
49 3 4.0804920062950956e+00 5.5616012298591953e+00 1.2458390370310616e+01 0 1 0
361 1 2.9339733029581341e+00 6.2822976534162445e+00 1.4645112833877759e+01 0 1 0
194 1 3.4594199403224626e-02 7.9315536605465633e+00 1.5597672784944354e+01 2 -3 0
57 2 1.6008465079610985e+00 8.4323782076428735e+00 1.2248151725769940e+01 0 1 0
388 1 5.3045943247638148e+00 5.6383623677115855e+00 1.8015188027272174e+01 3 -3 0
263 1 3.1187052874787797e+00 7.8708767433204123e+00 1.2199408062300336e+01 1 1 0
473 1 4.9209364697162528e+00 9.1102286900585323e+00 2.2318627936669198e+01 0 3 0
267 2 1.6195201049967193e-02 5.9109786159046793e+00 2.0636997804414257e+01 -8 -3 0
459 2 1.6691474802765509e+00 8.7661609026004399e+00 2.2249336322212574e+01 -6 -8 0
236 1 3.2737398151757229e+00 8.6787024918743274e+00 1.9508273056787154e+01 0 0 0
403 1 3.4182064930835008e+00 6.5832455102183802e+00 2.3224154760740682e+01 -7 2 0
405 2 2.4829706020256861e+00 6.3154612737723967e+00 2.2939918008674077e+01 -7 2 0
265 1 4.5725180744085225e-01 6.4599509751831210e+00 1.9996523422613638e+01 -8 -3 0
458 1 1.8307799561251696e+00 8.5417580515651554e+00 2.1342052585997415e+01 -6 -8 0
235 1 3.5243827869871982e+00 7.1188887565009882e+00 1.9484988675762374e+01 0 0 0
237 2 3.2270536208325877e+00 7.8813729317507244e+00 2.0109442750194976e+01 0 0 0
457 1 1.6392738284781989e+00 7.8499876598384715e+00 2.2609166691249889e+01 -6 -8 0
472 1 4.6988171022002483e+00 8.4880724136771413e+00 2.0855885142242411e+01 0 3 0
390 2 4.3369922340193598e+00 5.5891616207917840e+00 1.8291093671508872e+01 3 -3 0
474 2 5.3459522100468115e+00 8.5976657379898622e+00 2.1596787281235112e+01 0 3 0
420 2 4.2163996162173882e+00 9.5792203984716693e+00 2.4042951013549903e+01 -3 1 0
182 1 2.5428332420186304e+00 5.5126699851891985e+00 2.2380129563912934e+01 1 1 0
348 2 3.9190897985422679e+00 8.7144122453492958e+00 2.8557020457251625e+01 3 -2 0
135 2 2.2848848587535282e+00 7.0214011480501011e+00 2.7343788843185262e+01 8 -11 0
134 1 1.4984156715783519e+00 7.5910996303442095e+00 2.7100150386653631e+01 8 -11 0
123 2 1.9938256753533962e-01 9.3750277376854037e+00 2.9969384045610283e+01 -1 -3 0
218 1 4.0015699737463235e+00 8.8997539543709152e+00 3.0243282495894583e+01 -2 3 0
347 1 3.2333625877326195e+00 8.0466410844374927e+00 2.8221145781101701e+01 3 -2 0
133 1 1.8775732494051920e+00 6.1737039529205671e+00 2.7666461862991550e+01 8 -11 0
346 1 4.7566839144932658e+00 8.2448996137014134e+00 2.8372082532104724e+01 3 -2 0
437 1 3.5921567961449603e+00 7.1041009382846667e+00 2.6119979830109415e+01 2 -9 0
167 1 4.8894162614134977e+00 5.3676632539755564e+00 2.9463292831320903e+01 -5 -3 0
307 1 1.4170231205657147e+00 5.2452090467472470e+00 2.9749852134642367e+01 6 5 0
438 2 4.3191039570830361e+00 7.3676651594087845e+00 2.5402058099965284e+01 2 -9 0
309 2 1.1918535441911142e+00 4.9645230486165346e+00 2.8783044470394387e+01 6 5 0
436 1 4.0822250246243783e+00 8.2113724608289758e+00 2.5006085775505365e+01 2 -9 0
396 2 9.3780219371437279e-01 5.2727244074441835e+00 2.5146543833042852e+01 -3 -3 0
395 1 1.3882523770692488e+00 5.6360588021410258e+00 2.5866673782018857e+01 -3 -3 0
315 2 1.5756765272755710e-01 8.8220931770772246e+00 2.7271749203809829e+01 1 -5 0
313 1 2.5522397346791431e-01 9.1998399756555731e+00 2.8183492046688343e+01 1 -5 0
168 2 4.5785536253083627e+00 5.6941546073133456e+00 3.0319907845885101e+01 -5 -3 0
394 1 1.3339763683544967e+00 5.7690291370428355e+00 2.4345238282273041e+01 -3 -3 0
163 1 1.1401982479680304e+00 8.3560349922327148e+00 3.3837399136430349e+01 3 -5 0
217 1 4.7320902001680167e+00 8.5649913451353186e+00 3.1570729376995793e+01 -2 3 0
164 1 1.3949729082571314e+00 8.3659419805872695e+00 3.5352102108901498e+01 3 -5 0
336 2 2.9818938441051719e+00 8.4964807740740760e+00 3.6186126476411005e+01 -2 -2 0
376 1 1.5365563536958238e+00 7.5462210380813097e+00 3.1870890771781610e+01 -3 -4 0
357 2 5.2112281573159773e+00 9.1671154432523423e+00 3.5009477349336194e+01 4 0 0
486 2 4.1294050193504299e+00 5.2539573268325421e+00 3.4958948224249610e+01 -6 -2 0
165 2 7.1120441867288697e-01 8.0763998313237995e+00 3.4688734151528855e+01 3 -5 0
377 1 2.5295510006616979e+00 8.6315399846128944e+00 3.1935075569086667e+01 -3 -4 0
485 1 3.9606138157686854e+00 6.2004467182039651e+00 3.4759333016420847e+01 -6 -2 0
327 2 2.0381210773438498e+00 6.0476323868182877e+00 3.1309235293546763e+01 3 4 0
378 2 1.5511467903697578e+00 8.4591049263519356e+00 3.2305168499414165e+01 -3 -4 0
406 1 3.3612781285786912e+00 5.3708634644762974e+00 3.6461772466454349e+01 -3 -2 0
326 1 2.0288688027833710e+00 5.3998796613285540e+00 3.2062162174294585e+01 3 4 0
166 1 5.2760273252169894e+00 6.3272529375442135e+00 3.0533561876145001e+01 -5 -3 0
122 1 7.2128093253328307e-01 9.0630471110865720e+00 3.0777493909685834e+01 -1 -3 0
219 2 4.1519075348711292e+00 9.2344572300518450e+00 3.1217908169716210e+01 -2 3 0
335 1 3.5889956066755260e+00 8.9703607472018199e+00 3.5619249595518063e+01 -2 -2 0
325 1 2.9332896749387793e+00 6.0188465967972986e+00 3.0924182312033665e+01 3 4 0
353 1 6.7210070100436961e-02 6.4296507997281971e+00 3.4867925193321071e+01 6 -1 0
199 1 2.3418318788507744e+00 7.5602474342153929e+00 4.2428785584335102e+01 0 -2 0
407 1 3.3176918286687052e+00 6.8419980780347576e+00 3.6741090171425391e+01 -3 -2 0
141 2 4.9309194398669423e+00 7.9365839212726312e+00 3.8947865485385599e+01 0 -1 0
423 2 2.6883505034185307e+00 9.3774584935610434e+00 3.8680389967571088e+01 -6 -4 0
384 2 4.0611570988343426e-01 6.0128978023297304e+00 3.7781191762804845e+01 1 -8 0
311 1 6.2181603752479486e-01 8.2339311953694576e+00 4.0459849930079379e+01 -1 -4 0
206 1 3.3753648445033346e+00 5.7599281517980794e+00 4.1048565022796296e+01 -3 -3 0
383 1 1.3409756037605003e+00 6.0848326505477868e+00 3.7500279571510767e+01 1 -8 0
189 2 8.1393149546764798e-01 8.4923766899823239e+00 4.2029147155061480e+01 2 -2 0
334 1 3.0408080027055671e+00 8.9663656494836985e+00 3.7113684555775428e+01 -2 -2 0
421 1 1.8728921628607753e+00 8.9671490565044607e+00 3.9170344812209208e+01 -6 -4 0
201 2 3.1876660565452366e+00 7.0017706650825424e+00 4.2342582711926546e+01 0 -2 0
139 1 4.1400394261055853e+00 8.5305280072488205e+00 3.8986684440682112e+01 0 -1 0
140 1 4.7923175542749439e+00 7.2668608628209208e+00 3.9645406876417653e+01 0 -1 0
382 1 4.4118519754888946e-01 6.5614378292573798e+00 3.8530162655046020e+01 1 -8 0
188 1 8.6477907874869164e-01 9.3702489123617330e+00 4.2472146437611073e+01 2 -2 0
408 2 3.1512142845265916e+00 5.9727009181334676e+00 3.7144218915998664e+01 -3 -2 0
312 2 6.4327661191131347e-01 8.2321103601780461e+00 3.9476009404914471e+01 -1 -4 0
205 1 2.6057283320246571e+00 5.3246343346406126e+00 3.9685150341299078e+01 -3 -3 0
310 1 2.2664771934253338e-02 8.9967755600044850e+00 3.9187844571584129e+01 -1 -4 0
207 2 3.2644669360996263e+00 5.0415738601576967e+00 4.0317470526805572e+01 -3 -3 0
446 1 2.8947316139783030e+00 7.8733684732866340e+00 4.7396862270633811e+01 1 1 0
300 2 9.5434065394003287e-01 5.2947414157681347e+00 4.5749954507029919e+01 -2 -6 0
200 1 3.9672283690543177e+00 7.4044411093796709e+00 4.2808977631951301e+01 0 -2 0
445 1 1.0691112826202394e+00 6.8176916886245627e+00 4.6723757498859236e+01 1 1 0
463 1 3.9095473641469076e+00 8.7378078579433804e+00 4.6635083642365991e+01 0 1 0
447 2 1.2268023677697260e+00 7.5757398777311531e+00 4.7395343496809467e+01 1 1 0
465 2 3.7404987631578903e+00 8.2862615317949739e+00 4.7500461271014771e+01 0 1 0
470 1 1.3518727852750436e+00 9.3061619519448726e+00 4.6358147861884191e+01 4 -1 0
145 1 2.2066807696169377e+00 5.5596813521314861e+00 4.2885471485606047e+01 -3 -2 0
298 1 1.4727583520341134e+00 4.9754239789495056e+00 4.4982882680019713e+01 -2 -6 0
65 2 9.5207528383529052e+00 3.3802800829844615e+00 1.3953712201070876e+00 0 1 0
83 2 9.4525603772908049e+00 2.5831921763954173e+00 4.1803038431887263e+00 0 1 0
96 2 8.1472936500762678e+00 9.6538060299694894e-01 5.6122056359056556e+00 0 1 0
70 2 5.3928332139285144e+00 2.1685697780456048e-01 1.9684109576889938e-01 0 2 0
82 2 8.0850788172729970e+00 2.1419356514706944e-01 2.7786284128858294e+00 0 2 0
64 3 7.9945552787669376e+00 3.2488419157912687e+00 1.5194244702468052e-01 0 1 0
75 3 9.4725371746467921e+00 4.1110338872091351e-01 4.1961482250610231e+00 0 1 0
63 3 6.6565005075355348e+00 7.0981306598005134e-01 1.5331482714336133e+00 0 1 0
71 2 6.6169308778378051e+00 2.7748234231231517e+00 1.3976251498198686e+00 0 1 0
88 3 8.1504418063741255e+00 2.8759116930108091e+00 5.5951973916526869e+00 0 1 0
77 2 6.7009012045560841e+00 3.4325445591571278e+00 4.3335311896071520e+00 0 1 0
72 2 8.1301139393747981e+00 1.0682765803548353e+00 2.1752231241717121e-01 0 1 0
94 2 5.4525923593027583e+00 1.4072259357074057e-01 5.4185387562923397e+00 0 2 0
373 1 8.9961599521474707e+00 6.6641257746252947e-01 4.5677525123279517e-01 0 2 1
76 3 5.3894190785507678e+00 3.0860943010652950e+00 2.9197374851799003e+00 0 1 0
100 3 5.4388964289289623e+00 3.0024326556372043e+00 8.1176273940328940e+00 0 1 0
107 2 9.5498069939061683e+00 2.4193970583594551e+00 9.5517605781830444e+00 0 1 0
101 2 6.8472577550876990e+00 3.3198082409635936e+00 9.5501777006118598e+00 0 1 0
112 3 8.1021719876350264e+00 2.8799334910904419e+00 1.0837677949316827e+01 0 1 0
87 3 6.7822308729692313e+00 5.2503086550492706e-01 6.9448189417038986e+00 0 1 0
95 2 6.9105030215804959e+00 2.5165586329726430e+00 6.9436078317345995e+00 0 1 0
106 2 8.1959278168472558e+00 6.8131340231100221e-02 8.3909002209750998e+00 0 2 0
120 2 8.2144923679885604e+00 8.3925910593020614e-01 1.0946593034428107e+01 0 1 0
99 3 9.5533722758308777e+00 5.0210648676536040e-01 9.5760438778626451e+00 0 1 0
89 2 9.5153222850000549e+00 3.3471635220495912e+00 6.7641587298347980e+00 0 1 0
404 1 6.0447605564794973e+00 3.0853683549415636e+00 1.2080273710814810e+01 -8 2 0
281 1 1.0522074697515491e+01 2.7595612157567548e+00 1.2066864027368723e+01 3 -5 0
48 2 1.0748391304804903e+01 8.2705220300402482e-01 8.1252017455959145e+00 -1 1 0
113 2 9.6895318215944481e+00 3.2447155204104323e+00 1.2094128024568834e+01 0 1 0
108 2 5.3869043908144549e+00 8.9259034045406049e-01 8.1061007065113699e+00 0 1 0
443 1 8.4896703202327330e+00 4.5860762004848956e+00 1.4303263136983116e+01 1 1 0
442 1 8.0923965184717161e+00 8.7205721851963502e-01 1.4379512596676150e+01 0 1 0
399 2 7.1815706078202304e+00 3.8428762152239471e+00 1.6095089049293087e+01 1 1 0
398 1 6.3109147040268141e+00 3.4488794534265446e+00 1.5781498613196923e+01 1 1 0
169 1 7.6832983496738425e+00 9.1482384947376916e-01 1.6881030455066636e+01 2 0 0
170 1 7.7760404210323015e+00 2.3009432665960960e+00 1.6312575865094896e+01 2 0 0
283 1 1.0243842721559201e+01 2.5870681825921178e+00 1.5846831354879303e+01 -1 -2 0
171 2 8.1996996433138314e+00 1.4062006003388519e+00 1.6193280448858285e+01 2 0 0
454 1 1.0007256639384339e+01 6.5797531997108993e-01 1.3592070970767098e+01 -2 2 0
143 1 5.8593328552215667e+00 1.2834837431500885e+00 1.4338041858082507e+01 -4 4 0
258 2 8.3565164252280919e+00 3.2704064969702301e-01 1.3623225904083133e+01 0 2 0
111 3 7.0225957716431555e+00 2.4245276905176957e-01 1.2289580451347254e+01 0 1 0
397 1 7.1317993062311347e+00 4.1258778671307708e+00 1.7017445218755608e+01 1 1 0
119 2 6.8521013912543038e+00 2.5045688653869491e+00 1.2241001975323002e+01 0 1 0
321 2 5.6208646096342987e+00 4.9276987526025628e-01 1.3807991642890075e+01 0 1 0
317 1 9.1712469662023164e+00 2.2428540672949153e+00 2.3144963293664816e+01 0 -5 0
158 1 7.5468557939530641e+00 4.6040069539197095e+00 1.9574062941620745e+01 -1 6 0
149 1 7.5693418046984071e+00 3.4040883118908888e-01 1.9824508575329119e+01 1 1 0
172 1 6.0658114817541868e+00 3.0109081044085499e+00 2.0777736488282013e+01 3 -4 0
338 1 1.0100235254325394e+01 1.6346482796552499e+00 2.0901593539438952e+01 2 -5 0
367 1 7.8342628150010984e+00 3.5210577127947484e+00 2.1921859333516430e+01 5 -4 0
369 2 7.3925932612652003e+00 4.2906477389688424e+00 2.1383345262148076e+01 5 -4 0
318 2 9.2726011445776937e+00 2.7538969050462572e+00 2.2214521921027384e+01 0 -5 0
316 1 9.6673582261849358e+00 3.6247915162179360e+00 2.2407812870714604e+01 0 -5 0
173 1 5.6528453274712875e+00 1.5067345212355217e+00 2.1087147541970776e+01 3 -4 0
159 2 7.5070099952835987e+00 4.8614623178407124e+00 1.8627104760489186e+01 -1 6 0
150 2 7.6061751807978046e+00 2.2091214358686945e-01 2.0786612580355154e+01 1 1 0
323 1 1.0065763344775078e+01 2.0106860005854239e+00 2.7477740895047074e+01 -1 7 0
495 2 6.0264692653132066e+00 1.8950729320968103e+00 2.5197027618943665e+01 6 3 0
274 1 6.4778843528797703e+00 3.5725544288409510e+00 2.9018708265659537e+01 -2 -9 0
462 2 6.8087308677731944e+00 2.2157424327640789e+00 2.9787513960264732e+01 0 -1 0
432 2 6.2415877127938888e+00 4.7083134425321738e-01 2.7541311813779288e+01 -1 0 0
276 2 6.2155369809118994e+00 4.4416131996738111e+00 2.8454378620397918e+01 -2 -9 0
213 2 8.7267958045700720e+00 1.3281326811692749e+00 2.4402292515067213e+01 1 2 0
493 1 6.9163302638355653e+00 1.5734725026527918e+00 2.4843534460453714e+01 6 3 0
240 2 1.0103850302452118e+01 2.9459714505081545e+00 2.9131589177360830e+01 3 -7 0
324 2 1.0090781825023482e+01 1.5021707475557751e+00 2.6566012996557728e+01 -1 7 0
494 1 6.0880062716986982e+00 2.8549498837705571e+00 2.5252126635897302e+01 6 3 0
431 1 6.2355943535050224e+00 1.1518224443452718e+00 2.6708040543252437e+01 -1 0 0
239 1 9.2316994387948217e+00 2.5878088315915919e+00 2.9491071728354076e+01 3 -7 0
249 2 6.3323946552016510e+00 4.5169410846534284e+00 2.5065529606298977e+01 3 1 0
211 1 8.7763255260643831e+00 3.4987847263712607e-01 2.4507969380475856e+01 1 2 0
461 1 6.4499882182057897e+00 1.5166111256788399e+00 2.9155185001334495e+01 0 -1 0
212 1 9.1282172913713993e+00 1.7230742330438673e+00 2.5196149582367301e+01 1 2 0
252 2 5.8713325808068229e+00 3.8925088642375085e+00 3.1949044235156844e+01 -3 -4 0
460 1 6.2972747251845300e+00 2.3781034803127272e+00 3.0580323885109753e+01 0 -1 0
385 1 6.9299284690280034e+00 1.5302584461659074e+00 3.6039975929651099e+01 -2 -4 0
250 1 6.5566623803653892e+00 4.3314514220018188e+00 3.2542739162308408e+01 -3 -4 0
351 2 8.0825729791129390e+00 1.1952231133499545e+00 3.2373034024803104e+01 -2 -2 0
272 1 7.6326546747856927e+00 1.4178315734401454e+00 3.3201535811929546e+01 -3 1 0
386 1 6.3234171661720131e+00 2.8207747815891073e+00 3.5380967630551766e+01 -2 -4 0
387 2 6.6435638014701128e+00 1.9027585545491457e+00 3.5217697681662727e+01 -2 -4 0
364 1 9.5375088625752351e+00 3.8687615520846959e+00 3.2107982010848126e+01 -3 -1 0
441 2 6.9607352072591766e+00 4.7704148466896470e+00 3.5223424206867357e+01 1 10 0
349 1 8.9774098412133707e+00 1.5808599349129930e+00 3.2624060390712714e+01 -2 -2 0
297 2 1.0533476931242639e+01 2.3932349253323411e+00 3.2360030584194583e+01 -8 -10 0
355 1 5.5007087905008598e+00 2.3290078128637293e-01 3.4614310493590374e+01 4 1 0
251 1 5.6121624922137068e+00 4.6279848393318561e+00 3.1308190437062766e+01 -3 -4 0
366 2 8.9250701625591109e+00 4.5695599921527306e+00 3.1941697128860014e+01 -3 -1 0
439 1 7.6333613078476574e+00 4.5314465536000119e+00 3.4545653102852789e+01 1 10 0
301 1 7.7346764706936888e+00 3.7299749122924136e-02 3.0860990780086222e+01 3 -1 0
332 1 5.5550558415829592e+00 2.1622551937394570e+00 4.2434513249874435e+01 0 -1 0
480 2 1.0040126852378194e+01 6.4825527125443105e-01 3.8775314391391817e+01 -3 -1 0
478 1 9.3510138266037224e+00 5.8506747861170028e-01 3.8049415448356086e+01 -3 -1 0
151 1 6.9026000587117942e+00 4.2173947180185172e+00 3.9362582002633829e+01 -3 -3 0
479 1 9.5923090438404071e+00 1.1069036571052382e+00 3.9573086055891842e+01 -3 -1 0
256 1 7.8268815956305842e+00 1.3164877859443966e+00 4.1005743536883195e+01 0 2 0
257 1 8.0943733185774995e+00 2.6425571971540678e+00 4.0136135846741162e+01 0 2 0
381 2 8.5396131853710138e+00 1.8853911984920613e+00 4.0763154342502865e+01 0 2 0
153 2 7.8999981208861145e+00 4.3058091909000371e+00 3.9383626916684150e+01 -3 -3 0
231 2 6.2857925525132119e+00 1.9610746638192583e-01 4.0568157737023284e+01 4 0 0
426 2 8.0677876598259086e+00 2.9672274084062406e-01 3.7027073156110795e+01 -2 2 0
229 1 5.9769013827200341e+00 6.2374876567810611e-01 3.9752570587879127e+01 4 0 0
196 1 1.0399284035088256e+01 2.9677616332460475e+00 4.1385023514047731e+01 -2 -4 0
198 2 1.0696804324149532e+01 3.1222173889372846e+00 4.2278067470446487e+01 -2 -4 0
221 1 6.7545580601483177e+00 3.8614606918790226e+00 4.6736788057105471e+01 0 1 0
350 1 9.1174253776255174e+00 1.3921716306354346e+00 4.4227462095135969e+01 -2 -6 0
222 2 6.7852825889564494e+00 3.0168278105214732e+00 4.7172690049306176e+01 0 1 0
288 2 8.6375246214666479e+00 3.2045882960799190e+00 4.3759048719939010e+01 1 -7 0
333 2 6.1794916550124386e+00 2.2993080897351748e+00 4.3148702141497864e+01 0 -1 0