LAMMPS data file via write_data, version 5 Jun 2019, timestep = 1020000

564 atoms
3 atom types

0.0000000000000000e+00 1.3161440743621954e+01 xlo xhi
0.0000000000000000e+00 8.9076089999999990e+00 ylo yhi
0.0000000000000000e+00 4.8394900000000000e+01 zlo zhi

Masses

1 1
2 16
3 47.86

Atoms # atomic

34 2 5.1399495886570099e+00 2.9396556979514052e+00 1.1220403761221349e+00 0 0 0
156 2 3.2327094901741535e+00 4.3275310241465563e+00 2.3736079104702603e+00 1 0 0
121 3 3.2810660174145099e+00 2.9476566898103047e+00 1.1000625993590416e+00 1 0 0
123 2 1.1955686001016230e+00 2.9611809657746226e+00 1.1203623094648483e+00 1 0 0
128 3 3.3176987360914270e+00 1.5547822521528873e+00 4.3542887624036668e+00 1 0 0
130 2 1.9695808870798162e+00 2.9397475218504354e+00 4.4639682012794415e+00 1 0 0
37 3 6.5301785728105921e+00 2.9703878331637283e+00 4.4466928932679215e+00 0 0 0
42 2 6.4265492367809145e+00 1.5002770224552786e+00 5.6055001341420212e+00 0 0 0
126 2 3.2763070911293815e+00 1.3906224014551516e+00 2.3952650226706593e+00 1 0 0
129 2 4.5061500018541079e+00 2.9920529689811857e+00 4.5689805009053561e+00 1 0 0
41 2 6.5102574322584177e+00 1.3579389666362072e+00 3.0401495819764568e+00 0 0 0
97 3 4.8541437554233013e-02 2.9085698544550301e-02 4.5207216335063167e+00 1 0 0
32 3 6.3744019526674567e+00 1.3776180360000818e+00 1.1095259259356984e+00 0 0 0
72 2 6.5379103817097644e+00 4.4504945257411066e+00 5.6864444453177851e+00 0 0 0
93 2 1.1805797854029298e+00 1.9643109883363152e-02 9.8079866164499363e-01 1 0 0
62 3 6.3375339548380323e+00 4.4424838343029727e+00 1.1971926522426539e+00 0 0 0
53 2 6.5783434873579170e+00 1.4777372989132320e+00 9.8334955157565762e+00 0 0 0
133 3 3.2015529058840713e+00 2.7120359892375929e+00 7.6012934146264897e+00 1 0 0
142 2 2.0476761044785943e+00 3.0431749193236008e+00 1.1256631561293213e+01 1 0 0
137 2 3.2355862847865655e+00 1.3029508351638150e+00 6.3851643294011806e+00 1 0 0
46 2 5.2206306251919701e+00 2.8803359881168369e+00 7.7115679287332775e+00 0 0 0
141 2 4.4443369558717905e+00 2.9246709452657322e+00 1.1119814071132417e+01 1 0 0
140 3 3.2172490160996268e+00 1.5891662989246751e+00 1.1421416409985673e+01 1 0 0
135 2 1.1283855276649177e+00 2.8162016268130183e+00 7.5672291042135944e+00 1 0 0
138 2 3.2811008605708061e+00 1.5329391260198373e+00 9.0298058486273582e+00 1 0 0
49 3 6.4767947395934860e+00 2.8212416026497036e+00 1.1151036075314844e+01 0 0 0
143 2 1.2716144470132917e-03 1.5236054471473646e+00 9.9301554381399271e+00 1 0 0
83 2 6.3814217111057587e+00 4.3375352237565163e+00 9.8417147659960627e+00 0 0 0
44 3 6.4116428337530325e+00 1.4168026035878998e+00 7.8382224822075823e+00 0 0 0
74 3 6.4515577505874431e+00 4.3604635834804659e+00 7.8071470651619101e+00 0 0 0
167 2 3.1858169496274016e+00 4.3462624441517237e+00 6.4804654072599357e+00 1 0 0
168 2 3.2256650066409662e+00 4.3412674126366548e+00 8.9800450878057578e+00 1 0 0
105 2 1.1369215773611681e+00 7.3126530185463778e-02 7.7063764651528945e+00 1 0 0
112 2 1.9520557602736197e+00 5.3933338581904522e-02 1.1051220694681305e+01 1 0 0
289 1 3.5948919495775513e+00 3.6372854104928085e+00 1.7941876396059847e+01 2 -2 0
437 1 2.4247924882710139e+00 1.1927787842728739e+00 1.7428044269434832e+01 1 5 0
500 1 6.2998936398985652e+00 1.7360261787836229e+00 1.7100707051894588e+01 -1 4 0
150 2 3.3568994549841809e+00 1.3691916203246441e+00 1.5747275465092780e+01 1 0 0
147 2 1.1661849242116524e+00 2.9516595734321176e+00 1.4687990650003727e+01 1 0 0
179 2 3.2702993495138188e+00 4.4285357357483122e+00 1.3372500080593465e+01 1 0 0
145 3 3.2645326581441387e+00 2.8663745890548236e+00 1.4582681308658991e+01 1 0 0
149 2 3.0048031193337472e+00 1.3413847498281675e+00 1.3230593873893916e+01 1 0 0
58 2 5.2069933156838832e+00 2.8511366361213435e+00 1.4485259900627593e+01 0 0 0
419 1 5.5155129071517663e+00 4.4197505817876852e+00 1.6936544057278425e+01 3 -3 0
499 1 4.9716942432244258e+00 1.1767145714632588e+00 1.6326752988512947e+01 -1 4 0
501 2 6.0113113917437833e+00 1.1252273357181088e+00 1.6431920474158442e+01 -1 4 0
84 2 6.3304720190855583e+00 4.4276000236848345e+00 1.2347152755898174e+01 0 0 0
56 3 6.5320060238757822e+00 1.3877673183788599e+00 1.4317070558146954e+01 0 0 0
86 3 6.5140608387526182e+00 4.4009049941230565e+00 1.4426369805042778e+01 0 0 0
180 2 3.2086509633454527e+00 4.2754585636984128e+00 1.6036998668922980e+01 1 0 0
144 2 5.2939382872381202e-02 1.3957229678456229e+00 1.2474701331276258e+01 1 0 0
28 2 5.1562197199949784e+00 2.2640240412993506e-02 1.4294029897236763e+01 0 0 0
418 1 2.3347693899951345e+00 4.3134080557373657e+00 1.6565677899390820e+01 3 -3 0
420 2 6.3948829908962423e+00 4.4521935388825336e+00 1.6422447285193613e+01 3 -3 0
389 1 2.5981654518374158e+00 3.5387553126686355e-01 2.3387848918005602e+01 -3 -8 0
467 1 4.4231643462858097e+00 2.7694804757099352e+00 1.8887011501881670e+01 5 0 0
222 2 5.2956019599937694e+00 1.1265016455518426e+00 1.9316742932240068e+01 0 3 0
436 1 2.8186794704906020e+00 3.5334599076665241e-01 1.8602816679976552e+01 1 5 0
197 1 2.9923252947611689e+00 3.4891706453788398e+00 2.2255095494211108e+01 2 5 0
220 1 5.4013580898730709e+00 3.8186537606325860e-01 1.8713886181020516e+01 0 3 0
390 2 2.7426901328489572e+00 2.3760165487241705e-01 2.2416080344600452e+01 -3 -8 0
198 2 3.9104742294736545e+00 3.2728241190812404e+00 2.2560518750306976e+01 2 5 0
221 1 4.7599197422012516e+00 6.7613675350898506e-01 1.9979333770662453e+01 0 3 0
468 2 4.0419961682082572e+00 3.6491864091551789e+00 1.8813691938295868e+01 5 0 0
196 1 3.8991192834050747e+00 2.8017968285165766e+00 2.3440029201025435e+01 2 5 0
409 1 9.3914592599473257e-01 1.8401736507724420e+00 1.9370382133499305e+01 -1 2 0
552 2 1.4680889415961271e-01 3.4958737702386187e+00 2.2616570343381603e+01 -1 -3 0
411 2 2.4579832997099066e-01 2.2286873028309460e+00 2.0035587949224091e+01 -1 1 0
438 2 2.0280364429211182e+00 8.8731204245871342e-01 1.8321324452283253e+01 1 5 0
473 1 4.6535452318822488e+00 3.0255631923115089e-02 2.2573622097182568e+01 -1 3 0
316 1 4.3802801150041688e+00 2.5981505957970943e+00 2.6228472149972255e+01 0 6 0
300 2 1.2835971599067959e+00 3.9725134417503498e+00 2.5199134582314219e+01 -2 -1 0
288 2 2.5530796497941028e+00 1.9811378350447861e-01 2.5557331525319636e+01 -4 8 0
443 1 2.0271676506878249e+00 2.2852058033123614e+00 2.8017443303234121e+01 1 4 0
318 2 4.9947513519636990e+00 2.7931572873365682e+00 2.5531054952021652e+01 0 6 0
444 2 2.5336504129656561e+00 2.3703041511678178e+00 2.7177062818054882e+01 1 4 0
440 1 6.2699992441237313e+00 8.1885772161750053e-02 2.4483809501092964e+01 -6 0 0
414 2 1.2829560580403148e+00 2.0487450959516940e+00 2.9448913410318006e+01 0 3 0
459 2 5.3823237688263079e+00 1.9930879352849347e+00 2.9320169328521892e+01 -3 0 0
200 1 2.5213326648118897e+00 7.9519340415349693e-01 2.6371361269004964e+01 -4 6 0
457 1 5.1039803537309192e+00 1.3975727334191550e+00 2.8590199467149457e+01 -3 0 0
412 1 3.6810020244449393e-01 1.7710206516304243e+00 2.9423222041158869e+01 0 3 0
442 1 2.0178418911904936e+00 2.8757899303657961e+00 2.6604882144616074e+01 1 4 0
317 1 5.5587125921502407e+00 2.0255083904362250e+00 2.5439199105899078e+01 0 6 0
458 1 5.0620075647395613e+00 2.9176734607855583e+00 2.9213194505365060e+01 -3 0 0
503 1 5.8428152404889300e+00 4.1045634732188345e+00 2.6067716202628581e+01 -3 0 0
298 1 9.9118364769886169e-01 3.6832832025189259e+00 2.4305051216604241e+01 -2 -1 0
181 1 6.3770115524477875e+00 2.6293770176766351e-01 2.6096479534658428e+01 -4 1 0
524 1 2.1900910769323620e+00 8.2132298374688162e-02 2.9944169937028033e+01 1 3 0
413 1 1.3052217089377236e+00 2.5356792749620416e+00 3.0241040595537342e+01 0 3 0
285 2 2.7570859909451730e+00 9.1756413332119802e-01 3.2820992787328358e+01 6 7 0
234 2 2.0668391942401056e+00 3.3836013882777709e+00 3.2076782765237724e+01 5 -2 0
449 1 3.1864253930543889e+00 5.7515027950140274e-01 3.3675654082042101e+01 3 2 0
240 2 3.8314353263455470e-01 4.3054309456646678e-02 3.3851027781685502e+01 0 3 0
233 1 1.6692984617652191e+00 3.8242072591492771e+00 3.2952405051695969e+01 5 -2 0
528 2 5.5237462192187712e+00 7.0937510393095593e-01 3.2189945867702370e+01 1 -2 0
283 1 2.6172928698500577e+00 1.8755997711945989e+00 3.2645524733788250e+01 6 7 0
527 1 5.5377593853478810e+00 1.1002952208217380e+00 3.1301086432013278e+01 1 -2 0
189 2 4.9010842425176246e+00 3.5048546337397255e+00 3.5026102191267242e+01 0 5 0
454 1 4.6310878779109892e+00 9.9656397594308188e-01 3.2459328253331392e+01 0 -6 0
239 1 1.2042538661378039e+00 2.1353726930321532e-01 3.3388309133625178e+01 0 3 0
187 1 5.5242416054008769e+00 4.2039324129599391e+00 3.5152292825561162e+01 0 5 0
203 1 3.5641781442357781e+00 3.2613142621093640e+00 3.5954710838827523e+01 -3 9 0
188 1 5.4661219947851398e+00 2.7817923902650250e+00 3.4630516348722104e+01 0 5 0
430 1 1.4472995690564803e+00 4.1698387326767445e+00 3.5103950621346961e+01 -1 12 0
536 1 2.7345901743406573e+00 4.0846351987641683e+00 3.1832691855369806e+01 0 -2 0
238 1 8.7081353478172474e-02 1.0271178462317352e+00 3.3675902364874837e+01 0 3 0
466 1 6.5034384007693369e+00 1.3895152007178131e+00 3.3374412927618742e+01 2 -1 0
278 1 6.5567858123092622e+00 3.4743300961690600e+00 3.8682813603531031e+01 0 -3 0
559 1 6.1143377326171666e-01 1.2973010751242151e+00 3.6421166863470766e+01 -3 -4 0
214 1 3.4705722408389890e+00 2.8659827054127653e+00 4.0953217867128437e+01 2 0 0
560 1 9.2016966826329993e-01 5.0474904643679908e-01 3.7682984530415595e+01 -3 -4 0
405 2 4.7821592947691199e-01 2.4574414887146827e+00 4.1238960714359123e+01 0 -1 0
476 1 3.5467730338165038e+00 5.1716013078826473e-01 4.0419891782761106e+01 0 0 0
427 1 3.4212700318508704e-01 4.1237201961574730e+00 4.2080103174657992e+01 -3 6 0
334 1 5.6345326457845726e+00 1.3429666718173054e+00 4.0541050406915460e+01 1 3 0
480 2 3.1815568489526989e+00 1.9717321569021360e+00 4.1307624156499024e+01 0 -1 0
452 1 1.4232275225372409e-01 1.6962570676159221e+00 4.1710961303271802e+01 -2 -1 0
561 2 1.3624769465962669e+00 9.4928645841031212e-01 3.6917837864148140e+01 -3 -4 0
215 1 1.5332103519241136e+00 2.3286183280750432e+00 4.1261792920699534e+01 0 -1 0
204 2 2.6964223366861999e+00 3.4567178952263555e+00 3.6464069988943635e+01 -3 9 0
202 1 2.2098041136595219e+00 2.6369325322797170e+00 3.6639558558438587e+01 -3 9 0
279 2 6.3766451737497558e+00 4.1376204341113079e+00 3.9342182396102743e+01 0 -3 0
336 2 6.3255039472813355e+00 6.3534310151958884e-01 4.0253921790084803e+01 1 3 0
277 1 5.4604133685846357e+00 4.0980342620026482e+00 3.9794088824605879e+01 0 -3 0
291 2 3.8847828500210841e+00 4.3918874557548859e+00 4.0246172725002062e+01 2 0 0
422 1 3.4350207554280074e+00 1.9291172715683940e+00 4.2289917159474498e+01 1 4 0
185 1 5.8469687599124933e+00 2.3909627970960141e+00 4.7314686911500118e+01 -1 1 0
481 1 6.0312237795320005e+00 1.7989859622516042e+00 4.3614079840105418e+01 -2 -1 0
482 1 5.3915482748253103e+00 3.2512581269165244e+00 4.3786687074718756e+01 -2 -1 0
186 2 5.6583996475908203e+00 1.3928923987756430e+00 4.7525524828107436e+01 -1 1 0
274 1 6.0940132130072255e-01 1.3540008068889546e+00 4.7041051564211187e+01 -4 -3 0
483 2 5.9172471263806976e+00 2.7126702612078959e+00 4.3189615100582529e+01 -2 -1 0
433 1 3.2275614125013985e+00 2.3527141528707314e+00 4.4952185583643882e+01 1 -3 0
125 2 3.3087151288635632e+00 1.4557116293691978e+00 4.8263040173034163e+01 1 0 -1
428 1 5.2970267093537859e-01 3.9357504769917293e+00 4.3552708118230036e+01 -3 6 0
540 2 3.5326105690364016e+00 4.1730364101915587e+00 4.5649341486569881e+01 4 2 0
435 2 3.0546966372542839e+00 1.5551940309419410e+00 4.4398129783633742e+01 1 -4 0
302 1 4.3515253159468070e+00 1.4374281600775487e+00 4.7742358852735030e+01 1 -1 0
385 1 2.6771209893563035e+00 8.8577772999501059e-01 4.4912404727117377e+01 1 -1 0
538 1 3.1943552430605830e+00 4.1204362299033006e+00 4.6578566681639174e+01 4 2 0
155 2 3.1724454506597679e+00 4.4175117324119384e+00 4.8253552099605812e+01 1 0 -1
100 2 1.9476544980389805e+00 8.8884453425047454e+00 4.4723332026119449e+00 1 -1 0
160 2 1.9597268111011961e+00 5.8947456843370354e+00 4.4649510059180484e+00 1 0 0
151 3 3.0906226913487220e+00 5.9452618716724404e+00 8.6369248675476251e-01 1 0 0
153 2 1.2721222036771793e+00 5.8791600502835708e+00 1.2601334550916348e+00 1 0 0
64 2 5.2194225017774230e+00 5.9204110477727170e+00 9.5060527698392028e-01 0 0 0
98 3 3.3062320716707432e+00 7.4954768679939985e+00 4.3709218327685759e+00 1 -1 0
2 3 6.5255225172522557e+00 7.2770249216321616e+00 1.2115547702352063e+00 0 -1 0
159 2 4.5135245725483646e+00 5.9468739219592726e+00 4.4403840788737456e+00 1 0 0
96 2 3.3288195663793814e+00 7.2979511374175319e+00 2.3979799923256366e+00 1 -1 0
99 2 4.5928303533708688e+00 8.8317572173071941e+00 4.4569451163394467e+00 1 -1 0
91 3 3.1779245778999559e+00 8.7929294250034715e+00 1.1334835328300803e+00 1 -1 0
4 2 5.2009026111602124e+00 8.6834586091394623e+00 1.1563213377769688e+00 0 -1 0
67 3 6.4918599488351667e+00 5.9407121844962489e+00 4.4826346381762114e+00 0 0 0
12 2 6.4084743348314097e+00 7.4189839104291089e+00 5.7234805228726113e+00 0 -1 0
158 3 3.1447559983194662e+00 4.4782198189728613e+00 4.2596860340036651e+00 1 0 0
71 2 6.4871026845076232e+00 4.4730049071314077e+00 3.0635639290848777e+00 0 0 0
76 2 5.2473138041355796e+00 5.7980515163325688e+00 7.8154600705872230e+00 0 0 0
108 2 3.0206478722000338e+00 7.3315253913362612e+00 8.9938797851995318e+00 1 -1 0
107 2 3.2136041925286256e+00 7.2849713606992328e+00 6.5537947437477930e+00 1 -1 0
110 3 3.0105279417526600e+00 7.4924635506848638e+00 1.1135174125659947e+01 1 -1 0
171 2 4.4265546570759611e+00 5.9291519618848740e+00 1.1238745856484897e+01 1 0 0
79 3 6.2824266867825767e+00 5.7796040392841705e+00 1.1197483258969067e+01 0 0 0
163 3 3.2819340080020623e+00 5.7997356483558544e+00 7.6282162580332074e+00 1 0 0
16 2 5.3075558376771417e+00 8.8915130921242671e+00 7.8885826250840987e+00 0 -1 0
23 2 6.4662251124762298e+00 7.3084378523372804e+00 9.7242537219213254e+00 0 -1 0
172 2 1.8625288312623531e+00 5.7901141510645449e+00 1.1110499398850118e+01 1 0 0
165 2 1.0752502543435729e+00 5.8191371427583007e+00 7.9419180322090881e+00 1 0 0
103 3 3.1216200434568964e+00 8.8956006477298981e+00 7.9911432518625567e+00 1 -1 0
19 3 6.3842517212516849e+00 8.7722320784331327e+00 1.0927567633007211e+01 0 -1 0
170 3 3.1799877620797794e+00 4.5163514873870128e+00 1.0775719215641930e+01 1 0 0
111 2 4.4639926111789396e+00 8.9024220452287857e+00 1.1041887591522341e+01 1 -1 0
469 1 3.9176399065989993e+00 7.5657149494061837e+00 1.7423240168856005e+01 2 4 0
175 3 3.2209707440833206e+00 5.9915685792889617e+00 1.4363439240123224e+01 1 0 0
177 2 1.0758496996859930e+00 5.9110052963759463e+00 1.4506889600089595e+01 1 0 0
88 2 5.2571347177512191e+00 5.9269688162419092e+00 1.4426571615023486e+01 0 0 0
119 2 3.0844033905856842e+00 7.3928406678855643e+00 1.3185190805940501e+01 1 -1 0
313 1 6.5709662349365816e+00 6.0649614635294764e+00 1.6503951251941889e+01 -4 -1 0
120 2 3.1348215246215987e+00 7.2864449960292292e+00 1.5864683780861993e+01 1 -1 0
373 1 1.0415278923453377e+00 7.4901316518009153e+00 1.6848417253146796e+01 -6 -5 0
309 2 6.5794000884951389e+00 7.0596849876554035e+00 1.6602686655473093e+01 -6 -3 0
114 2 9.6769690516492299e-02 7.3808579654249140e+00 1.2309873405268343e+01 1 -1 0
26 3 6.4746676558113219e+00 7.4175102755304385e+00 1.4194416896114824e+01 0 -1 0
470 1 5.3763020809766928e+00 7.4134356188033621e+00 1.7653448620913014e+01 2 4 0
393 2 5.5631015462280331e-02 7.2611513347826175e+00 1.6695951726134627e+01 4 -4 0
117 2 1.1379183666688710e+00 8.8823644643258159e+00 1.4667083369564015e+01 1 -1 0
115 3 3.1190391394080605e+00 8.7569317856549880e+00 1.4694680273392640e+01 1 -1 0
362 1 2.5246355116586101e+00 5.5819053875266196e+00 1.9271499685806990e+01 -6 -1 0
303 2 2.1823747535000440e+00 6.4425004708146352e+00 2.2133656463154146e+01 0 -3 0
361 1 1.6507185039199175e+00 6.2753254541284038e+00 2.0365935507027029e+01 -6 -1 0
474 2 5.4776063632261511e+00 8.4470824098861748e+00 2.2857160386625399e+01 -1 2 0
363 2 1.6595351179652764e+00 6.0968530247257586e+00 1.9335523429112612e+01 -6 -1 0
404 1 4.7435686748780821e+00 6.4424598217592051e+00 1.9802803698041586e+01 -1 2 0
519 2 4.6730985778033105e+00 5.7908115024842797e+00 2.0587293802732720e+01 -1 2 0
472 1 1.4339706705293771e+00 5.9840744228903189e+00 2.2522936770705147e+01 -2 2 0
226 1 2.9462441710617178e+00 5.9371401548017424e+00 2.2199466560394548e+01 -3 4 0
407 1 2.4135288895683900e+00 8.2209190353375483e+00 2.2250698001647674e+01 0 0 0
206 1 5.5515708304782541e+00 6.4958165970549446e+00 2.3075879251074383e+01 0 -8 0
518 1 4.5521416679035447e+00 4.8725869705587739e+00 2.0221382684148363e+01 -1 2 0
247 1 4.8941520827028295e+00 5.0404104505366840e+00 2.2827210272014675e+01 1 0 0
207 2 5.3653569601897910e+00 5.5913440672212502e+00 2.3487407397253779e+01 0 -8 0
471 2 4.5629986424232190e+00 7.7185518165691480e+00 1.8151328742923855e+01 2 4 0
328 1 6.1334598907768676e+00 8.8872102670566751e+00 2.2305262950350802e+01 -3 -4 0
358 1 6.5288643559831012e+00 5.5859286779522739e+00 2.0479693583116610e+01 -6 8 0
344 1 1.2647745418639040e+00 5.4159443352468699e+00 2.8508726770435405e+01 -2 2 0
525 2 1.8778988647214900e+00 8.0772129015888297e+00 2.9860977198540912e+01 1 2 0
556 1 4.8318650335704803e+00 8.0811818220766369e+00 2.7583858872426397e+01 1 3 0
424 1 2.8979152580715768e+00 7.2474642163561755e+00 2.8844092237726496e+01 3 -2 0
299 1 4.9416577583440463e-01 4.5110974303131401e+00 2.5615690293789399e+01 -2 -1 0
355 1 2.4544083442566471e+00 5.5721641105511770e+00 2.5024864716876788e+01 1 3 0
253 1 1.8647183240406615e-01 5.9506114994167572e+00 2.7544104118967947e+01 -3 -1 0
558 2 5.5746923111920186e+00 8.7202319292897670e+00 2.7662770195129063e+01 1 3 0
416 1 3.9604353177547220e+00 6.0593074422379338e+00 2.5034473192424159e+01 1 3 0
425 1 3.0747451862449471e+00 6.5157446592924622e+00 2.7296690308401619e+01 3 -2 0
417 2 3.0536350850418379e+00 6.3766699424303095e+00 2.5250535588384668e+01 1 3 0
345 2 5.2816332380914033e-01 5.0788719753432865e+00 2.7960970938289940e+01 -2 2 0
496 1 4.3348670917809304e+00 5.1349096524450708e+00 2.8785510205384014e+01 3 3 0
426 2 3.4116415950487959e+00 6.6040842628315772e+00 2.8208958996643318e+01 3 -2 0
286 1 2.8564708211077221e+00 8.1892643079790499e+00 2.5722967135547666e+01 -4 7 0
209 1 6.3721668123033206e+00 8.2930608788281361e+00 2.8029429480022976e+01 0 0 0
498 2 5.2041298369317719e+00 4.6502488647342668e+00 2.9073039131892603e+01 3 3 0
356 1 5.6911057771092297e+00 4.6145439840335074e+00 2.8178817592540039e+01 -2 3 0
504 2 6.3006224602132050e+00 4.8200102947344554e+00 2.6648579368138968e+01 -3 0 0
544 1 9.2622725582633358e-01 8.7222295118955131e+00 2.5079154490518473e+01 5 2 0
367 1 4.5550467312279137e+00 6.8573104180784226e+00 3.3150452329801681e+01 0 -3 0
312 2 5.2195019233675310e-02 7.2707707591653810e+00 3.1791241158911031e+01 1 -5 0
310 1 4.4138144528595623e-02 7.5655233200327396e+00 3.2714681991870691e+01 1 -5 0
370 1 6.4571019653606569e+00 6.2213803027061543e+00 3.4798567292451494e+01 -1 -2 0
327 2 3.2828163628928078e+00 8.8247684104964836e+00 3.5261792546434855e+01 -1 4 0
380 1 6.2742372035966740e+00 8.0766563607565320e+00 3.2935070859743988e+01 0 -7 0
431 1 1.9852852495077604e+00 5.2703666705748944e+00 3.4268159009615637e+01 -1 12 0
537 2 3.6767436314440261e+00 6.5388034621242248e+00 3.3469726090742668e+01 -2 -3 0
326 1 3.8033119435451566e+00 8.5716017242788425e+00 3.6086780344266202e+01 -1 4 0
432 2 1.3067134123701212e+00 4.6186810603760753e+00 3.4263364818013763e+01 -1 12 0
381 2 6.3684883813710602e+00 7.1129852333968833e+00 3.3080870951509333e+01 0 -7 0
182 1 3.5382598257078017e+00 7.1847363714258741e+00 3.4257315027924207e+01 2 -5 0
523 1 1.2936078767560741e+00 7.8943302667795541e+00 3.0648178773245458e+01 1 2 0
394 1 1.7082981653302021e-01 6.8523118174643081e+00 3.5215873470892994e+01 3 -4 0
325 1 2.3706350111078738e+00 8.8209266881568453e+00 3.5591417018077266e+01 -1 4 0
290 1 6.4640257232892342e+00 5.3940377344770498e+00 3.0397770681841717e+01 1 -3 0
364 1 6.1603893631889957e-02 6.2084949176525965e+00 3.7225202332451808e+01 -1 -7 0
223 1 4.2113295569438538e+00 8.2321208069223264e+00 3.8484554406107456e+01 3 0 0
434 1 2.8273452386932587e+00 4.7029771826118258e+00 3.7533547440501863e+01 0 -4 0
339 2 3.6992848924485249e+00 6.8301812997167906e+00 4.1745817849695356e+01 -1 3 0
493 1 3.7625265851096588e+00 5.1934353141301877e+00 4.0918027771226839e+01 2 2 0
477 2 3.2686224083681887e+00 8.6191073880240836e+00 3.9927462363236550e+01 0 -1 0
338 1 3.4551806405777437e+00 7.5245310044585150e+00 4.1083517244336953e+01 -1 3 0
225 2 4.4655371715502543e+00 7.7976654717674432e+00 3.7603777882332579e+01 3 0 0
475 1 2.0274043695090143e+00 5.9034805058347501e+00 3.8191794164637329e+01 1 0 0
266 1 2.3596453291899855e-01 7.7420586158447051e+00 3.8770855913830296e+01 -1 -4 0
224 1 3.9463455313846234e+00 6.8759790164919021e+00 3.7584071212910530e+01 3 0 0
315 2 2.9328203409708395e+00 5.5703816237683270e+00 3.8005684044023376e+01 2 -2 0
319 1 6.5200594039864184e+00 5.6556884163761554e+00 3.8577922757819138e+01 1 -1 0
337 1 4.7011745874760216e+00 6.8872386946210344e+00 4.1810499612261204e+01 -1 2 0
349 1 3.3656471792372087e+00 4.6866311231404021e+00 3.9485767908195044e+01 -2 -7 0
267 2 5.1517123516855434e-01 8.5714103206878196e+00 3.9307577606184822e+01 -1 -4 0
320 1 6.2787451094764712e+00 7.1805615914409451e+00 3.7913903240365258e+01 1 -1 0
342 2 4.3739685187707761e-01 6.0115550006795537e+00 3.8064820641309097e+01 -4 0 0
272 1 6.4611625916449933e+00 7.8082844151543602e+00 4.1092869632952919e+01 -1 1 0
273 2 6.3343879328251811e+00 7.2687522335769383e+00 4.1864211242009439e+01 -1 1 0
308 1 2.2566615854429459e+00 8.7369438285332102e+00 3.9968487532537907e+01 -1 -5 0
216 2 1.6698416956108058e+00 7.2909998979432533e+00 4.3474148376075206e+01 -1 0 0
329 1 2.3958931648882384e-01 8.6711941338039669e+00 4.2910224916182415e+01 -1 -4 0
441 2 1.7811895170242484e+00 8.1040214656115452e+00 4.5842418987921853e+01 -2 -2 0
377 1 2.5987944286980746e+00 7.1163148815960948e+00 4.2948201643096347e+01 -4 4 0
297 2 1.4924001446188809e-01 4.5393779656861772e+00 4.7294888670994872e+01 -1 4 0
539 1 2.8522715024624814e+00 4.7088121682067445e+00 4.5246772872160122e+01 4 2 0
532 1 1.2115798399699667e+00 6.4257613787500221e+00 4.3253735261127147e+01 0 4 0
242 1 6.1909000691108351e-01 7.4165047689701211e+00 4.6765269345763741e+01 -5 0 0
557 1 5.4442101459914145e+00 5.2689794259913887e+00 4.6829942546378142e+01 2 -3 0
351 2 6.2636244152541218e+00 7.5461414640829307e+00 4.7114723661959779e+01 -2 -6 0
95 2 3.1779665681089062e+00 7.4590709485751745e+00 4.8252614941708103e+01 1 -1 -1
429 2 6.2796831600260272e-01 4.7054145603447513e+00 4.2831238895877355e+01 -3 6 0
479 1 5.9096081109134122e+00 8.4457361696155164e+00 4.7208760201689593e+01 -3 0 0
505 1 2.4254623980011383e+00 7.8796185496723981e+00 4.6503733865760402e+01 -5 2 0
461 1 1.7921895659936091e+00 7.5425068305965368e+00 4.4997915264738495e+01 -6 5 0
246 2 6.2336674725425842e+00 4.6379597748026811e+00 4.7046921936386610e+01 0 -5 0
332 1 5.7407147086649033e+00 8.1484564705432376e+00 4.4641792949052409e+01 3 6 0
333 2 6.2630365007014959e+00 8.8694255929878700e+00 4.4441119710215006e+01 3 6 0
68 3 9.8108034588477615e+00 4.4026431196145523e+00 4.3673275795921649e+00 0 0 0
36 2 9.6963507914895715e+00 1.4052364752668085e+00 2.3288336700983665e+00 0 0 0
38 3 9.8655865252345674e+00 1.4462736003838568e+00 4.0616881822315012e+00 0 0 0
127 3 1.3046899939849954e+01 3.1281624121402896e+00 4.5570556838047356e+00 0 0 0
131 2 1.3140137604118486e+01 1.3710109427913877e+00 3.0838808591781173e+00 0 0 0
124 2 1.1827177701544658e+01 2.9106917137646411e+00 1.2294891204457239e+00 0 0 0
39 2 1.1117589780384641e+01 2.8189777489736580e+00 4.3573528797886798e+00 0 0 0
40 2 8.5368099978387431e+00 2.9138516937483532e+00 4.3931899171736024e+00 0 0 0
33 2 7.5724400440622803e+00 2.8476700191153541e+00 7.6984141490613978e-01 0 0 0
31 3 9.7153071519107019e+00 2.9664314654595216e+00 9.1559483180811296e-01 0 0 0
122 3 1.3039816367327411e+01 1.4709431096894077e+00 1.3224160575130419e+00 0 0 0
152 3 1.3160485835927927e+01 4.3470251639979338e+00 1.2541695233185370e+00 0 0 0
132 2 1.2988564425891104e+01 1.3607540047516400e+00 5.7847326351893491e+00 0 0 0
161 2 1.3150699886315788e+01 4.4039157684417418e+00 3.1616666810359471e+00 0 0 0
66 2 9.7437068678767069e+00 4.4464671072022330e+00 2.3492932359278180e+00 0 0 0
162 2 1.3020031186802582e+01 4.4163601662319198e+00 5.7604126783446938e+00 0 0 0
7 3 6.6474155824561816e+00 2.1412190415828647e-02 4.4769184544882421e+00 0 0 0
136 2 1.1670924662469206e+01 2.8653055819773279e+00 7.7852280990242306e+00 0 0 0
43 3 9.6165510698295371e+00 2.8106278017439146e+00 7.6716772207313619e+00 0 0 0
51 2 1.1071040132052525e+01 2.9070379776913144e+00 1.1034524379047047e+01 0 0 0
80 3 9.8003241038301407e+00 4.2356361915435130e+00 1.1141735461305124e+01 0 0 0
52 2 8.4649061935655219e+00 2.9729728171989267e+00 1.1106241844945965e+01 0 0 0
50 3 9.6626569270610592e+00 1.2822672919615008e+00 1.1159077193128615e+01 0 0 0
48 2 9.8145245338828051e+00 1.3677899280220165e+00 9.0136553344828965e+00 0 0 0
45 2 7.7097721518588855e+00 2.9058969134006474e+00 7.9619905137817621e+00 0 0 0
47 2 9.8234650145281392e+00 1.4932750521639035e+00 6.4458481957834906e+00 0 0 0
77 2 9.7973531905394733e+00 4.4287497580919801e+00 6.3905982923534532e+00 0 0 0
78 2 9.7832929201419674e+00 4.4346681275019364e+00 9.1355397506577205e+00 0 0 0
134 3 1.2956699786942579e+01 1.4799959060832755e+00 7.7966373678906749e+00 0 0 0
139 3 1.2870664362127030e+01 2.9145361722491701e+00 1.1276638883446889e+01 0 0 0
164 3 1.3071040137951487e+01 4.4264217177646596e+00 7.8027757909535049e+00 0 0 0
54 2 6.5985563192302115e+00 1.3499178643972516e+00 1.2386063497177618e+01 0 0 0
59 2 9.6038596041804425e+00 1.3189939276653764e+00 1.3070304025422177e+01 0 0 0
252 2 1.2697165588507090e+01 1.3960808738573158e+00 1.6407910076536513e+01 -1 5 0
205 1 8.8689866549746714e+00 1.3601838131877333e+00 1.6173208488156039e+01 0 -7 0
148 2 1.1666372178008642e+01 2.8308457525651041e+00 1.4588765235756034e+01 0 0 0
55 3 9.8247059894420676e+00 3.0191043205068833e+00 1.4584080863049309e+01 0 0 0
57 2 7.7564727865961141e+00 2.9212048144690161e+00 1.4567610242633183e+01 0 0 0
146 3 1.3153794846933668e+01 1.5109503498115600e+00 1.4331554575469021e+01 0 0 0
60 2 9.7732516023548506e+00 1.3534551714353684e+00 1.5733437542193750e+01 0 0 0
89 2 9.8817800879804274e+00 4.2984788485086307e+00 1.3172662585729269e+01 0 0 0
262 1 1.0070735475379388e+01 7.3914196807907639e-01 1.7830728275079043e+01 -8 -2 0
346 1 7.3678164690129924e+00 3.5471144005072293e+00 1.7554772865889465e+01 -2 1 0
535 1 1.1751871285765201e+01 1.1308892132507231e+00 1.6459928005840208e+01 -1 2 0
174 2 1.3019245933258048e+01 4.4008312622358732e+00 1.2511135010470049e+01 0 0 0
530 1 1.2639434002432342e+01 4.2834302276384237e+00 1.7271765888614265e+01 -9 1 0
307 1 1.3008239963914185e+01 7.4968690143535621e-01 1.7010819535384258e+01 2 -5 0
90 2 9.7637837635765745e+00 4.3072661439097404e+00 1.5713119822614619e+01 0 0 0
550 1 1.0410061220637459e+01 4.1387346535647769e+00 2.0628685876406585e+01 -3 -1 0
294 2 1.2303248879151155e+01 4.3095285416718820e-01 2.2012194800640422e+01 -4 -2 0
264 2 1.0736160378697278e+01 1.1962812452644338e+00 1.8412439472060139e+01 -8 -2 0
263 1 1.1219467970749129e+01 5.2509437871697096e-01 1.8881768700472819e+01 -8 -2 0
284 1 1.0911983842104828e+01 2.9033226749262235e+00 1.8516291700515126e+01 5 6 0
293 1 1.2804820806814137e+01 7.8147726052104483e-01 2.1241588351856819e+01 -4 -2 0
541 1 1.0694327994756119e+01 7.3401247544292403e-01 2.2095343954813849e+01 3 -2 0
516 2 9.7628434533760711e+00 1.1340488950411123e+00 2.2174464661335840e+01 1 -2 0
415 1 9.7920834820871860e+00 1.8985746868506264e+00 2.1614110028879640e+01 3 9 0
251 1 8.0313056904481748e+00 5.8383702836301943e-01 2.1430523048504064e+01 0 0 0
292 1 1.2858238086212328e+01 6.5101388241726121e-01 2.2779367816194398e+01 -4 -2 0
375 2 9.8258048620683525e+00 4.0521570200273587e+00 2.1502395234902810e+01 -7 -3 0
387 2 1.1239750995333248e+01 3.7541770824544654e+00 1.8946268902203041e+01 -2 1 0
374 1 8.9238005213205494e+00 4.3090344828650373e+00 2.1199205237048503e+01 -7 -3 0
450 2 7.2690127790958368e+00 2.4228398876118890e-01 2.0989923342496631e+01 3 -5 0
448 1 6.7742184171852919e+00 1.0134683496962837e+00 2.0553477247530367e+01 3 -5 0
514 1 1.3150489933347888e+01 2.9820073324432901e+00 2.1731521735985282e+01 -1 -3 0
551 1 1.2759622567024794e+01 4.3019821959082085e+00 2.2478575101445589e+01 -2 -3 0
563 1 9.4288986424757049e+00 1.7126076090611999e+00 2.3704647414457458e+01 5 -1 0
347 1 8.5595706450111155e+00 3.0661147847642511e+00 1.8398237494538019e+01 -2 1 0
410 1 1.2811455637852383e+01 2.8231878472644283e+00 1.9516524270761003e+01 -2 1 0
348 2 7.5771969528304579e+00 2.9732166569555427e+00 1.8326798841342711e+01 -2 1 0
269 1 1.1307645102002084e+01 2.6967889352128132e+00 2.9054621763630745e+01 -1 -1 0
227 1 1.1464521501871781e+01 1.3685799253930004e+00 2.7510316300341405e+01 -6 2 0
402 2 1.1295158726603608e+01 1.6837115779592697e+00 2.5970588124142136e+01 -3 -2 0
330 2 9.2303904231602321e+00 6.9396159464485463e-01 2.9840863657478931e+01 0 1 0
208 1 1.2046673021005564e+01 4.0324850809767865e+00 2.8854437650486503e+01 -4 -6 0
400 1 1.1898029613450850e+01 1.0828201472455734e+00 2.5527316534342930e+01 -3 -2 0
391 1 1.1296081995045883e+01 3.4741172150837074e+00 2.4823106018191762e+01 -3 2 0
401 1 1.0321233762647548e+01 1.7172035714142799e+00 2.5566684645711941e+01 -3 -2 0
228 2 1.1736489619236892e+01 1.1077029318637150e+00 2.8502214787711523e+01 -6 2 0
384 2 1.1442243566298933e+01 3.6162542998366329e+00 2.9469472868620734e+01 -1 -3 0
564 2 9.1693653957834531e+00 2.1666261856612605e+00 2.4605384075772431e+01 5 -1 0
323 1 1.0887731201334844e+01 7.4394994844088691e-01 2.8951122953998606e+01 -2 -5 0
562 1 8.3728081520698527e+00 1.6866486098827169e+00 2.5016814127639766e+01 5 -1 0
462 2 1.1633313194849762e+01 4.3771505984532553e+00 2.4849475077729604e+01 -6 9 0