LAMMPS data file via write_data, version 5 Jun 2019, timestep = 1000000

564 atoms
3 atom types

0.0000000000000000e+00 1.0463234318202188e+01 xlo xhi
0.0000000000000000e+00 1.1408130000000000e+01 ylo yhi
0.0000000000000000e+00 4.8595999999999997e+01 zlo zhi

Masses

1 1
2 16
3 47.86

Atoms # atomic

6 2 3.5328615778807047e+00 1.9935932679114441e+00 4.8881832389562827e-02 1 0 0
75 3 9.3534495712971299e-01 3.7511769506860975e+00 5.2553310007207665e+00 1 0 0
24 2 1.3506221252916704e+00 1.8331401946481491e+00 5.0314524428603589e+00 1 0 0
84 2 1.4547836035535608e+00 5.5921352306435859e+00 4.9051661511493512e+00 1 0 0
5 2 2.8315851086754096e+00 1.7534401695913731e+00 2.4056017661682203e+00 1 0 0
16 3 3.1796693398819103e+00 1.7742366145568664e+00 4.3836306591389942e+00 1 0 0
71 2 1.3102363964316432e+00 3.7011391932756492e+00 9.2187027488914008e-01 1 0 0
83 2 2.8200483381574806e+00 3.6868974230197082e+00 4.4077319292427806e+00 1 0 0
12 2 1.1087250741828827e-01 1.8364792526538856e+00 1.7322554844952118e+00 1 0 0
17 2 4.3192749598790865e+00 1.7955360332721833e+00 5.9260588925064894e+00 1 0 0
4 3 1.8458764241972931e+00 1.8066109838258630e+00 8.1269930637822552e-01 1 0 0
64 3 1.8312959549031951e+00 5.6849669018728779e+00 9.3349093497485591e-01 1 0 0
1 3 4.6591904198004030e+00 1.9672713540602269e+00 1.5794214413657861e+00 1 0 0
65 2 2.8520475685808528e+00 5.6012729839480615e+00 2.4291551551718493e+00 1 0 0
18 2 5.0804060839966381e+00 1.9134974143937054e+00 3.5268085049272382e+00 1 0 0
76 3 3.2763992879589838e+00 5.5555011854541618e+00 4.3713194466021337e+00 1 0 0
8 2 5.0203635195110996e+00 3.4986511240610696e-02 1.4909631036405280e+00 1 0 0
77 2 4.3849575761730772e+00 5.4801354989751623e+00 5.8694100039671238e+00 1 0 0
43 2 3.7725143083956608e-01 1.8070967991867048e+00 1.1503974015570311e+01 1 0 0
106 2 2.5246006892451893e+00 3.6290377905836979e+00 1.0685663755835227e+01 1 0 0
28 3 4.6258171382335416e+00 1.8921789600349741e+00 7.8842156589725549e+00 1 0 0
95 2 4.3284181381673754e+00 3.7001230631889772e+00 7.9299363013165793e+00 1 0 0
98 3 7.2312466858042346e-01 3.7309775742842382e+00 1.1363959885883084e+01 1 0 0
87 3 2.3147891212528200e+00 3.7223778647905954e+00 8.6816239857384812e+00 1 0 0
93 2 3.7609642362843015e-01 3.7783966225429730e+00 9.4623077713760377e+00 1 0 0
36 2 2.7461053191689979e+00 1.9166778993868083e+00 8.5433716579165981e+00 1 0 0
94 2 1.2116340762520363e+00 3.7816200236037516e+00 7.1300322678709831e+00 1 0 0
103 2 3.5639844065207588e-01 5.5931772994404572e+00 1.1541331900915297e+01 1 0 0
88 3 4.6995955517164552e+00 5.5501555821978084e+00 7.9498205421700305e+00 1 0 0
96 2 2.8317627415677729e+00 5.5621193777656694e+00 8.4243457111103641e+00 1 0 0
48 2 4.1221162527402697e+00 1.8074999510201486e+00 1.2096095796686212e+01 1 0 0
108 2 4.0164231323711084e+00 5.5088287150073798e+00 1.1893924387481906e+01 1 0 0
99 3 3.6522625744252242e+00 3.7097700680809620e+00 1.2107822810712042e+01 1 0 0
117 2 3.2555882162358118e+00 3.5362646453501956e+00 1.6482003232759837e+01 1 0 0
290 1 3.0345651330769137e+00 2.3026228959321711e+00 1.7504208883443063e+01 4 -4 0
55 2 1.5981083514379772e+00 1.7712288099360556e+00 1.4827203398205693e+01 1 0 0
110 3 2.1581572218765053e+00 3.5907315992436293e+00 1.4875983147374846e+01 1 0 0
289 1 2.9926056449881289e+00 7.9626568240110429e-01 1.7598317985810777e+01 4 -4 0
105 2 1.8750147092111300e+00 3.5811723302410146e+00 1.2929835497382205e+01 1 0 0
198 2 4.1841601139965662e-01 1.5796773940589832e+00 1.7976736959156362e+01 1 0 0
116 2 4.4954564986161250e-01 3.5746473258986744e+00 1.6022082744909731e+01 1 0 0
118 2 4.0459246082644897e+00 3.7587528338486411e+00 1.4130784653195978e+01 1 0 0
115 2 1.7659538812604429e+00 5.5824839467147163e+00 1.5170455444726839e+01 1 0 0
292 1 3.1238013607639910e+00 4.7859553353629902e+00 1.7755920864540702e+01 -2 3 0
111 3 5.0033822921881921e+00 3.6604017108341527e+00 1.5690038224437941e+01 1 0 0
446 1 1.2216789147153724e+00 5.4202822809285491e+00 1.8052946120147617e+01 8 7 0
300 2 3.3064265439331575e-01 5.6262091218920318e+00 1.7790447965676957e+01 1 0 0
196 1 1.4372447459186064e+00 1.6300284015873865e+00 1.7891692976575353e+01 1 0 0
291 2 2.8841783263048075e+00 1.5765208040854752e+00 1.8208949034369340e+01 4 -4 0
528 2 4.1103692743174038e+00 4.4727755514591356e+00 2.2068177549391880e+01 10 -3 0
316 1 2.9422517289062036e+00 5.4592681225304096e+00 2.3819635709085091e+01 3 4 0
335 1 1.5084168188042562e+00 1.9332351403787666e+00 2.1567811574699913e+01 -5 -5 0
347 1 3.1444004830631935e+00 4.1759492389298440e+00 2.1785170809722867e+01 6 -2 0
527 1 4.5840628627739788e+00 3.7821478601209217e+00 2.2595855858511246e+01 10 -3 0
336 2 1.4287778562409561e+00 2.9430807935374772e+00 2.1627992706776240e+01 -5 -5 0
296 1 4.8964328580295708e+00 5.1444753959992626e+00 2.0590024766835747e+01 8 -4 0
311 1 4.5939489734903169e+00 2.6998800053527940e+00 2.0873299339052405e+01 3 0 0
509 1 1.1841980613508170e+00 3.0336060341409437e+00 2.2617615415699465e+01 -6 -6 0
450 2 4.9336746782150032e+00 1.8253790232099500e+00 2.0451520291913866e+01 4 11 0
349 1 1.5246683420963597e-01 3.6861623847686813e+00 2.0436153567019183e+01 4 -3 0
253 1 7.3196614745296174e-01 4.8398283067949571e-01 1.9756990570462648e+01 2 -1 0
255 2 1.0301078779749309e+00 3.8288475505360703e-01 2.0725378744771952e+01 2 -1 0
505 1 2.7713442313092784e-01 2.5020912185610724e+00 1.8375481679921258e+01 5 -2 0
294 2 3.1108845037724429e+00 5.6173281357052653e+00 1.8336526943764962e+01 -2 3 0
449 1 4.2823324510903129e+00 1.6593832431965398e+00 1.9698368810765320e+01 4 11 0
445 1 4.5311791160161334e+00 2.5719602397903767e+00 2.4384815486603323e+01 8 6 0
356 1 3.9077401592882381e+00 5.4249679055774731e+00 2.9738455187991537e+01 1 -1 0
487 1 2.4329323787957229e+00 4.0742322179872756e+00 2.9008078732264881e+01 -3 -1 0
220 1 2.4554450211446399e+00 1.1855283764090683e+00 2.6253760997563674e+01 -2 3 0
427 1 5.8032850869863650e-01 4.0557508300215082e+00 2.4695328973793220e+01 10 -7 0
412 1 2.6487593208979434e+00 2.0318070478209842e+00 3.0291655131105010e+01 -9 -2 0
221 1 3.6054658444580210e+00 2.0461754067114315e+00 2.7032868972163001e+01 -2 3 0
222 2 2.7785303872531761e+00 2.1270404483845349e+00 2.6491352251363921e+01 -2 3 0
314 1 2.1296224719877572e+00 2.8323555014304067e+00 2.7927604385837469e+01 -4 -1 0
489 2 2.0901923131447422e+00 3.1556299725883816e+00 2.8892755394212557e+01 -3 -1 0
318 2 3.1337862084422845e+00 5.6167654439258694e+00 2.4810091587893542e+01 3 4 0
428 1 1.7028982815158167e+00 2.8566573117855083e+00 2.4968252578286634e+01 10 -7 0
429 2 9.0633559889957449e-01 3.1371417634007828e+00 2.4394036837255602e+01 10 -7 0
228 2 2.7785889645359024e-01 5.4742043264398523e+00 2.5324574837949118e+01 -5 10 0
404 1 2.4805220490423580e-01 3.4931459568654484e+00 2.8618579390388607e+01 3 2 0
317 1 2.2044584451032985e+00 5.5381924541129210e+00 2.5159021538406915e+01 3 4 0
280 1 5.0121807124692275e+00 8.6433054350073743e-02 2.8323777533497243e+01 -12 4 0
259 1 3.0438762192893463e+00 1.2520160478429152e+00 3.2581906207123858e+01 -14 -4 0
550 1 8.0862987467753256e-01 3.2663472217125480e+00 3.4215102395201271e+01 -8 7 0
293 1 3.8410226900444360e+00 1.6277210758148279e+00 3.3865819701593075e+01 -11 -5 0
551 1 1.1666705134479947e+00 4.3219537346694894e+00 3.3082007130738802e+01 -8 7 0
355 1 4.0959065056905102e+00 4.3607611707259188e+00 3.1989957754532757e+01 4 -8 0
530 1 2.1757208380716784e+00 4.3898893747149437e+00 3.1216731768660768e+01 -7 -3 0
529 1 5.9520716875918833e-01 4.1988500608014432e+00 3.1219201654415386e+01 -7 -3 0
230 1 1.7237755983824021e+00 4.9093160366057988e+00 3.5513352456805933e+01 -3 -5 0
510 2 3.8367067653825977e+00 4.2173902276803101e+00 3.1022828355790644e+01 4 -7 0
287 1 5.1636206917908090e-01 1.0699749447435336e+00 3.5819355186114414e+01 1 -4 0
260 1 1.2761499440446891e+00 1.0494779778124244e+00 3.4428773717162613e+01 -1 -1 0
552 2 8.3152983803140068e-01 4.2089443498158863e+00 3.4042563536347593e+01 -8 7 0
390 2 4.4102830156961087e-01 1.2855457475778034e+00 3.4849721733663166e+01 2 -4 0
261 2 3.0509026499924938e+00 1.1690392047596299e+00 3.3560160126098253e+01 -14 -4 0
362 1 4.4629181574224335e+00 3.5254304991868173e+00 3.0767904290571018e+01 5 -8 0
531 2 1.3311232241643662e+00 4.7647448085328579e+00 3.1542174825965589e+01 -7 -3 0
231 2 2.0953903360124011e+00 4.8766540569349557e+00 3.6411176693666384e+01 -3 -5 0
354 2 5.0091121894283575e+00 4.7121116962182663e+00 3.3520429992112781e+01 -3 4 0
334 1 3.6421330155908618e+00 5.5384039633778706e+00 3.6425108184874631e+01 -1 2 0
414 2 2.8930628969785528e+00 1.3019124239819366e+00 3.0957734259050518e+01 -9 -2 0
353 1 4.9031570859725999e+00 5.6152941228322666e+00 3.3885668674031386e+01 -3 4 0
413 1 3.6280331425602204e+00 7.9405576213628015e-01 3.0458063066912324e+01 -9 -2 0
475 1 4.9849869273086664e+00 1.6199019451591508e+00 3.8136026712734655e+01 0 2 0
470 1 2.7194920663118136e+00 5.1900416544929993e+00 4.1147960220970226e+01 -6 7 0
488 1 5.3736765722542845e-01 3.6489889103806754e+00 3.9391296351936440e+01 0 -5 0
324 2 1.3601366944624782e+00 5.8356674026433808e-01 3.7525303439574429e+01 2 -3 0
322 1 1.5292466441297736e+00 1.5155898451331069e+00 3.7857863820375073e+01 2 -3 0
330 2 2.0597463128897053e+00 3.2888778764411217e+00 3.8486733152433366e+01 -5 -3 0
477 2 4.7432759297868703e+00 2.1362083918520960e+00 3.8976377892577375e+01 0 2 0
329 1 2.2696851382729903e+00 3.6403633993272915e+00 3.7598319342751033e+01 -5 -3 0
492 2 4.6387672938001048e+00 5.4729042666383023e+00 3.6702317963042674e+01 0 2 0
195 2 4.7322458768468660e+00 1.8109692892082016e-01 4.1182056256853350e+01 -1 3 0
209 1 2.8672934871852678e+00 2.8928580043254630e+00 3.8832942364677088e+01 -3 -1 0
194 1 4.8878188265922784e+00 6.5759678335883698e-01 4.0355564931502400e+01 -1 3 0
323 1 1.0235330795102031e+00 1.6550143780530970e-02 3.8217834808262552e+01 2 -3 0
193 1 5.0756063398134499e+00 8.3223392057566115e-01 4.1781821033713371e+01 -1 3 0
229 1 1.5011261642788167e+00 5.4278866545212514e+00 3.6961769113209272e+01 -3 -5 0
506 1 3.8635829865862772e+00 4.7260924962101418e+00 4.7536907039388389e+01 10 -3 0
520 1 2.4320440851533740e+00 2.5436513873509412e+00 4.3147364589468019e+01 -4 3 0
313 1 2.3678637031124602e-01 5.0020707995873037e+00 4.3100535810191445e+01 -2 0 0
320 1 3.9504334969695027e+00 3.0864598987505367e+00 4.7192724883223761e+01 -3 3 0
436 1 5.9476282792267721e-01 4.9532383866643022e+00 4.6926299847757065e+01 0 6 0
279 2 1.0362677397207939e-01 1.2279492005565615e-01 4.5671550277589134e+01 -5 -3 0
212 1 6.7820996834443925e-01 1.3004405362918525e+00 4.6901071314928636e+01 -3 -1 0
423 2 1.1145747488853077e+00 2.0963914927015703e+00 4.7348259678059769e+01 1 0 0
507 2 4.1361583403056370e+00 3.9983480321737863e+00 4.6823798951920701e+01 10 -3 0
521 1 3.8985693261783791e+00 3.1246659482368990e+00 4.3074301073640932e+01 -4 3 0
340 1 4.9619158736125096e-01 2.8288285825337502e+00 4.7065490360402478e+01 -5 -1 0
463 1 3.7422136676114910e+00 9.5093525496003195e-01 4.7362396131879045e+01 -13 0 0
417 2 1.1843804404136598e+00 5.5828239348641588e+00 4.7386440564059512e+01 2 0 0
278 1 6.5625764737410452e-01 4.2921603548309784e-01 4.4941442828942108e+01 -5 -3 0
363 2 7.4893299874184571e-01 4.8027015476000052e+00 4.3852657975554258e+01 -1 0 0
383 1 3.4196780579577011e+00 5.4011904903636943e+00 4.4824887532843555e+01 -13 -4 0
338 1 1.6130474598857691e+00 4.7395126323294159e+00 4.3473527655870079e+01 -1 1 0
369 2 7.6039260545852982e-01 1.1655513850864065e+00 4.3141778151975373e+01 -3 -8 0
368 1 1.2305278719906834e+00 4.4131424550027670e-01 4.2693816644371800e+01 -3 -8 0
522 2 2.9386841495050691e+00 3.3602863782188179e+00 4.2984386509090129e+01 -4 3 0
465 2 4.0227080125736077e+00 1.0450271713938927e-01 4.6846195880107778e+01 -13 0 0
286 1 2.4626394018875786e-02 4.0320894488284003e+00 4.5055372927540560e+01 16 -9 0
138 2 4.9464813584821066e+00 9.4158116438464283e+00 3.5503897861068379e+00 1 0 0
144 2 1.2533497272984537e+00 9.4368396945179569e+00 5.0069723293286268e+00 1 0 0
131 2 1.5235799334087841e+00 7.6243238364207855e+00 6.6588718634613242e-01 1 0 0
136 3 3.1601921639374000e+00 9.4040757065079976e+00 4.3435026349130190e+00 1 0 0
78 2 5.0563178440895795e+00 5.7715582586233669e+00 3.5179029370336727e+00 1 0 0
137 2 4.3006594038441248e+00 9.4051561788876850e+00 5.9298767576078539e+00 1 0 0
143 2 2.7637912362230090e+00 7.5756611517882826e+00 4.4317578445298560e+00 1 0 0
135 3 9.1880839144458837e-01 7.4202559544368638e+00 5.1376962598223690e+00 1 0 0
125 2 2.7415896680915313e+00 9.4522008990271456e+00 2.4319077683274934e+00 1 0 0
66 2 3.4976751773114025e+00 5.8558674359998024e+00 4.8114572138782383e-02 1 0 0
124 3 1.7659659872983433e+00 9.4475298134654420e+00 7.5106498486642970e-01 1 0 0
121 3 4.6694288615525315e+00 9.6014310299829688e+00 1.5191444099964186e+00 1 0 0
15 3 8.8945145943156068e-01 1.1271411951932125e+01 5.1876382448496452e+00 1 -1 0
61 3 4.7553740876718642e+00 5.7942564614674508e+00 1.6602952996691092e+00 1 0 0
23 2 2.7164178943982402e+00 1.1326098374348350e+01 4.4397419049995692e+00 1 -1 0
11 2 1.3814996659342702e+00 1.1366047079557609e+01 6.7744073128729965e-01 1 -1 0
126 2 3.5992207739646362e+00 9.4848002854240558e+00 2.1804804147386392e-02 1 0 0
155 2 4.2988954364612528e+00 7.4693109572802623e+00 8.0046846418857172e+00 1 0 0
166 2 2.7007090461354673e+00 7.6177952102258288e+00 1.0585356860547687e+01 1 0 0
158 3 7.3815280261237859e-01 7.4496662594010674e+00 1.1395241551775365e+01 1 0 0
154 2 1.2122819840571117e+00 7.3362587567669344e+00 7.1135840136284267e+00 1 0 0
148 3 4.6033325624249555e+00 9.3840404295349185e+00 7.8745119405871682e+00 1 0 0
156 2 2.5836605021744301e+00 9.3608465494046413e+00 8.4160454787919488e+00 1 0 0
147 3 2.3785993715017755e+00 7.4671185027959703e+00 8.6650057641538876e+00 1 0 0
33 2 4.1590381142499211e-01 1.1283301713148250e+01 9.4170587478501613e+00 1 -1 0
163 2 3.0175590384909634e-01 9.4917421419421260e+00 1.1501290381889985e+01 1 0 0
153 2 4.6310430028701083e-01 7.5067040166647141e+00 9.5039616672150569e+00 1 0 0
46 2 2.5933201825354399e+00 1.1217047615207553e+01 1.0616085672335581e+01 1 -1 0
27 3 2.3005298572706394e+00 1.1262545131571759e+01 8.6056389239214717e+00 1 -1 0
35 2 4.0916078032441385e+00 1.1278644688453776e+01 8.1014051281508390e+00 1 -1 0
38 3 7.8136141111564561e-01 1.1258053374221863e+01 1.1260093556449956e+01 1 -1 0
168 2 4.1624304089583779e+00 9.3712427990930003e+00 1.2130874720918436e+01 1 0 0
34 2 1.1784228203967437e+00 1.1392225505344665e+01 7.1353300264488686e+00 1 -1 0
159 3 3.6607469082991164e+00 7.4459491238311033e+00 1.2091619334788518e+01 1 0 0
165 2 1.9184667207899002e+00 7.5023315638850532e+00 1.3014000970392784e+01 1 0 0
58 2 4.0500693700590400e+00 1.1199325988231616e+01 1.4120292083485824e+01 1 -1 0
178 2 4.0422971501034279e+00 7.4470370462099433e+00 1.4132568143653462e+01 1 0 0
56 2 1.2355292146625706e-01 1.1283573314207041e+01 1.5857342279027581e+01 1 -1 0
177 2 3.1082459466787795e+00 7.5496036211840085e+00 1.6420447826654630e+01 1 0 0
175 2 1.5710637883574223e+00 9.4878884490771718e+00 1.4939691447599760e+01 1 0 0
170 3 1.9959376157569646e+00 7.4573616733744812e+00 1.5017177642870749e+01 1 0 0
459 2 6.4852845739243015e-01 9.3982851772440839e+00 1.8112344641052182e+01 1 0 0
392 1 2.9713584091700271e+00 6.2681219468580673e+00 1.7619105986509734e+01 -2 4 0
57 2 3.2161712783818803e+00 1.1085337617361350e+01 1.6474023822373351e+01 1 -1 0
176 2 1.9715732014508422e-01 7.4935147689926485e+00 1.5784886003444424e+01 1 0 0
171 3 4.9969429790625028e+00 7.3370767701767630e+00 1.5615158280415676e+01 1 0 0
51 3 4.9656301244566485e+00 1.1301093583517012e+01 1.5663493824130896e+01 1 -1 0
39 3 3.6205958080235110e+00 1.1300133862693343e+01 1.2170277377928429e+01 1 -1 0
50 3 2.1053567861634614e+00 1.1256178234511498e+01 1.4892745717088518e+01 1 -1 0
45 2 1.8263741707268972e+00 1.1246959981979758e+01 1.2949008067269066e+01 1 -1 0
332 1 5.0494055221163991e+00 6.4944457979893739e+00 1.8199074002337849e+01 1 0 0
448 1 1.5581932813261459e+00 9.3882523579166595e+00 1.7838218726665424e+01 3 12 0
358 1 2.8164942625379012e+00 9.6122699910158449e+00 2.1842193482803189e+01 1 5 0
359 1 3.3117168580281668e+00 9.5255067417427277e+00 2.0373821186592394e+01 1 5 0
257 1 4.2811099801560895e+00 6.8877821187037966e+00 2.3351174126041464e+01 -4 1 0
258 2 4.1332290358971830e+00 7.6231363592605215e+00 2.2740263205239188e+01 -4 1 0
191 1 4.6415591720923022e+00 1.0529783422208999e+01 2.3163784202276812e+01 -5 3 0
360 2 2.4692897820916380e+00 9.5172815878017776e+00 2.0902724804755934e+01 1 5 0
256 1 3.4388661980983413e+00 7.2701698763264533e+00 2.2152959411829148e+01 -4 1 0
190 1 3.8411147396233281e+00 9.2667015854863184e+00 2.3671140882747398e+01 -5 3 0
184 1 1.0704772674397773e+00 6.7362124367740295e+00 2.1232353289683651e+01 -8 1 0
186 2 1.9887168136757798e+00 6.4362489962177918e+00 2.1480636025213180e+01 -8 1 0
192 2 3.7264829012270995e+00 1.0176663923133811e+01 2.3253736725842199e+01 -5 3 0
375 2 4.9677966924421950e+00 9.5166223937644840e+00 1.9635062242279979e+01 -7 6 0
457 1 2.3270024979998456e+00 6.0373769214168096e+00 2.0565017460515641e+01 -5 -2 0
373 1 4.9637144276382594e+00 8.7522462743054525e+00 1.9002465629365162e+01 -7 6 0
254 1 1.5354447845837591e+00 1.0887453897316551e+01 2.0672484387220720e+01 2 -2 0
185 1 5.1556019705868705e-01 8.6869683681518790e+00 1.8740070993808487e+01 -2 3 0
281 1 4.1631222159511223e+00 1.0266852814593232e+01 2.8127774006699262e+01 -12 3 0
444 2 2.9168821360520467e+00 9.1144734949575259e+00 2.6970455442317633e+01 2 3 0
380 1 2.1439102842234039e+00 6.5531221616968303e+00 2.8330782127553505e+01 1 -2 0
442 1 2.3300671313233723e+00 8.4608025724814730e+00 2.7371162817723349e+01 2 3 0
514 1 1.3481833582498022e+00 1.0615918507777806e+01 2.4959480403227968e+01 2 -3 0
443 1 2.3342454122449650e+00 9.8293258204048950e+00 2.6575124584023261e+01 2 3 0
499 1 4.1365499229269602e+00 7.9194874257971888e+00 2.6253585578423454e+01 -9 -1 0
421 1 4.2847721135766053e+00 5.9276613617387026e+00 2.8196453321922387e+01 0 -1 0
379 1 1.0321077900679034e+00 7.6375810938737736e+00 2.8917783436723482e+01 1 -2 0
381 2 1.2964681464455881e+00 7.0667409819756140e+00 2.8146539497958603e+01 1 -2 0
515 1 2.7696139248490788e+00 1.0950234126163824e+01 2.4480910002459058e+01 2 -3 0
516 2 2.1475885597760578e+00 1.1240847722750475e+01 2.5166068746470746e+01 2 -3 0
282 2 4.8825679448988408e+00 1.0615540466810748e+01 2.8644432012180015e+01 -12 3 0
501 2 4.6611037688155541e+00 7.0690411907195942e+00 2.6240892026477660e+01 -9 -1 0
500 1 4.3141417412628291e+00 6.4615856913702654e+00 2.5506183173565233e+01 -9 -1 0
357 2 3.5905901860673475e+00 5.7420119537965411e+00 2.8884597740070593e+01 1 -1 0
441 2 4.7594262614604688e+00 7.2823604681868161e+00 3.4113096565029409e+01 -10 -2 0
419 1 3.7929467946354749e+00 1.0012530625028116e+01 3.5198011391690962e+01 -9 -5 0
544 1 4.4368593138513708e+00 8.4491128798858028e+00 3.0816840014084267e+01 -14 -3 0
217 1 2.6021122644639347e+00 7.5881838330636482e+00 3.1236433489525584e+01 -7 5 0
219 2 2.8181746107326653e+00 8.4859286714489102e+00 3.1541006799402798e+01 -7 5 0
418 1 3.5487904922180626e+00 1.0734958476537571e+01 3.3806337148893903e+01 -9 -5 0
549 2 3.5111309688351927e-01 9.7001937307374764e+00 3.4117181951427852e+01 2 4 0
189 2 6.9410515649577753e-01 1.0907445327399634e+01 3.0768980722520482e+01 -7 -8 0
218 1 2.9557261492653799e+00 8.4382616269511619e+00 3.2479873895072437e+01 -7 5 0
420 2 3.5229192913287748e+00 9.8580995583496680e+00 3.4257262607801138e+01 -9 -5 0
187 1 1.0363141228409036e+00 1.0126215104169548e+01 3.1226280583968613e+01 -7 -8 0
490 1 5.1079821287494882e+00 6.1413032396360556e+00 3.6234349471442940e+01 0 2 0
548 1 1.3730373697014850e+00 9.7935279658934000e+00 3.4226375815874725e+01 2 4 0
440 1 4.3073349000849790e+00 8.0765301466876025e+00 3.4451181790139373e+01 -10 -2 0
188 1 1.5467681491833585e+00 1.1396444466996522e+01 3.0602840957524862e+01 -7 -8 0
398 1 2.1277829009130298e+00 7.2486711277058484e+00 4.1260951646465486e+01 -1 5 0
462 2 9.8817287966245859e-01 6.3048275816605832e+00 3.8546264454088593e+01 6 -1 0
399 2 1.5966097660378682e+00 8.1129358904866375e+00 4.1470805551386370e+01 -1 5 0
205 1 3.0428374611175557e+00 1.0698141928984636e+01 3.7099810207441642e+01 -2 -3 0
268 1 3.1361700371508614e+00 1.0821584017980523e+01 4.1612948254573588e+01 3 -5 0
471 2 2.8115908575325355e+00 5.9350410561886209e+00 4.0524832088016744e+01 -6 7 0
265 1 3.4665323935844866e-01 8.7630605683622225e+00 4.0017901994933148e+01 6 6 0
397 1 2.1286449720352363e+00 8.8262137297861987e+00 4.1901035712245680e+01 -1 5 0
523 1 2.7628889138992387e+00 7.7615771834417799e+00 3.8823073096603203e+01 -5 0 0
328 1 3.6898902901751236e+00 9.3606412949689446e+00 3.7610099776285267e+01 0 -4 0
270 2 2.4668509978573723e+00 1.0459286603199683e+01 4.2309348650347850e+01 3 -5 0
207 2 3.7695207548363832e+00 1.0093068907781689e+01 3.6914263725813193e+01 -2 -3 0
524 1 4.1198103927461425e+00 7.2507067790730710e+00 3.8116023658259500e+01 -5 0 0
525 2 3.6389173998361000e+00 8.0522810601450789e+00 3.8530715300062845e+01 -5 0 0
461 1 1.3416436513869254e+00 6.0496004767682896e+00 3.9454283025127474e+01 6 -1 0
469 1 3.7735993514537354e+00 6.1646970026589036e+00 4.0487048788468925e+01 -6 7 0
460 1 2.5023770029822683e-02 6.3397894447629541e+00 3.8556486488311492e+01 6 -1 0
208 1 9.7513025733897155e-02 8.3675874732323194e+00 4.2317706321354343e+01 1 4 0
504 2 3.9134801903185683e+00 7.6281292904335807e+00 4.6789841164094447e+01 -1 -1 0
403 1 2.3652755640943207e-01 8.0844839977924376e+00 4.4595611444553846e+01 1 4 0
246 2 4.1134991158075671e+00 1.0045769806308751e+01 4.4561504524829409e+01 -4 -5 0
269 1 2.8901051480367026e+00 1.0296819500934573e+01 4.3208319191621349e+01 3 -5 0
502 1 3.6459414278658611e+00 6.8395661777514540e+00 4.7417728715409972e+01 -1 -1 0
426 2 1.1216865959446964e+00 9.4965377150752612e+00 4.7331738629061498e+01 1 0 0
245 1 4.0848124619584896e+00 1.0789825127197675e+01 4.5196491139265170e+01 -4 -5 0
503 1 3.7257205247843679e+00 8.3677516526710107e+00 4.7491991940445317e+01 -1 -1 0
438 2 5.7855749328195616e-01 7.5068157822171697e+00 4.5319047834274812e+01 -1 7 0
437 1 9.3370848106953019e-01 6.7706354851908781e+00 4.4723249239127298e+01 -1 7 0
361 1 4.1900874874733809e+00 9.1496585765822900e+00 4.4977653887233579e+01 -1 -3 0
197 1 4.8737823453234563e+00 6.1672454587709140e+00 4.3576016853703031e+01 -1 -3 0
382 1 3.6605775139643484e+00 6.8863198131263221e+00 4.5336324644331647e+01 -13 -4 0
206 1 8.4475849927001834e-01 1.0284824280348445e+01 4.6792446778431440e+01 -5 3 0
464 1 3.6380636289568322e+00 1.0751387524898073e+01 4.7394809461608993e+01 -13 -1 0
401 1 9.0579277344073950e-01 6.4548322125089586e+00 4.7006135137050812e+01 -2 5 0
308 1 1.1563004481946935e+00 8.6824684223978554e+00 4.6814349224476459e+01 -4 5 0
384 2 3.6379878142026323e+00 6.2781927919810299e+00 4.4510490186199206e+01 -13 -4 0
7 2 6.6318272997937449e+00 1.8987462582961045e+00 6.7152505896824410e-01 1 0 0
19 2 8.1326251945879413e+00 1.8380391510540268e+00 4.5791919904729772e+00 1 0 0
82 2 1.0281499184053709e+01 3.8941934719412377e+00 3.7177850356110294e+00 0 0 0
63 3 1.0066399383766479e+01 3.7218086917925883e+00 1.7772550415089923e+00 0 0 0
81 2 9.5150748487373278e+00 3.8522010987598181e+00 5.9667742303765294e+00 0 0 0
62 3 7.1692015606781911e+00 3.6767092153244385e+00 8.9259224228523981e-01 1 0 0
69 2 8.1179681775009538e+00 3.6424366054765338e+00 2.5245980499358533e+00 1 0 0
13 3 6.0575561614814504e+00 1.8804955007655180e+00 5.1458831935055063e+00 1 0 0
80 2 6.4355728825062313e+00 3.7457359906173937e+00 5.0389707182464818e+00 1 0 0
74 3 8.4487542240401297e+00 3.7608861886958951e+00 4.4061606763929149e+00 1 0 0
70 2 8.9316123308619737e+00 3.6171120989459005e+00 2.3610135580215230e-01 1 0 0
9 2 8.0543692399379445e+00 3.1495270160465182e-02 2.3840558596348695e+00 1 0 0
10 2 8.9364606706136058e+00 7.9105569277760718e-02 1.4442241002643749e-01 1 0 0
79 2 7.9889723893160092e+00 5.6815297351205984e+00 4.4492553207767909e+00 1 0 0
68 2 5.2477397541517083e+00 3.7683500988593623e+00 1.5643751909317434e+00 1 0 0
14 3 8.4062636059042379e+00 3.7160979950298767e-02 4.3394524073945773e+00 1 0 0
72 2 1.0458572010165526e+01 5.7005775892159161e+00 1.6207590135866219e+00 0 0 0
73 3 6.1003385915789341e+00 5.6844701176462467e+00 5.1826360544391727e+00 1 0 0
67 2 6.6171718116530611e+00 5.6769659111330393e+00 9.1359653417033371e-01 1 0 0
22 2 1.0213637765642906e+01 8.5741095297908743e-03 3.6481582395209444e+00 0 0 0
2 3 7.1680758950786254e+00 6.2878917332039208e-02 8.0670701762720243e-01 1 0 0
92 2 7.9228057256161435e+00 3.6952701915579826e+00 8.6605422707123854e+00 1 0 0
42 2 7.8750766811175783e+00 1.9149278596337167e+00 1.0646816076533762e+01 1 0 0
89 2 5.6780536463108939e+00 5.4009964023658021e+00 9.5037227879472610e+00 1 0 0
30 2 6.4755507494507727e+00 1.8583645650205185e+00 7.1363582808453101e+00 1 0 0
85 3 7.5218865098703116e+00 5.6391335840464976e+00 8.7200169404492485e+00 1 0 0
29 2 5.6189312482169340e+00 1.6954330333451639e+00 9.5605874462435469e+00 1 0 0
25 3 7.5342958848191861e+00 1.7520410038775605e+00 8.8232255159294315e+00 1 0 0
86 3 9.7094701038340343e+00 3.5888961665324772e+00 7.9477857871413038e+00 0 0 0
31 2 9.3039288015645170e+00 1.7751735402385798e+00 7.8411584141457649e+00 0 0 0
40 3 5.9777591390958635e+00 1.8576101041460023e+00 1.1435838544938584e+01 1 0 0
107 2 5.6889036712220031e+00 3.6649663098453553e+00 1.1518769502155147e+01 1 0 0
102 2 7.8520493575006993e+00 5.5774221007816243e+00 1.0614355164654652e+01 1 0 0
91 2 9.4032992381902769e+00 5.6587824068169317e+00 8.0732478381264539e+00 0 0 0
100 3 6.0150942875592035e+00 5.5967596751397499e+00 1.1389171560121968e+01 1 0 0
53 2 8.5005435949718198e+00 1.7101989423823631e+00 1.6502469976734595e+01 1 0 0
41 2 7.1103066730077691e+00 1.8179433040589377e+00 1.2997291215941209e+01 1 0 0
54 2 9.2971783056996742e+00 1.8323471611055713e+00 1.4158125768275388e+01 1 0 0
52 3 7.4573189575421024e+00 1.7804636056556333e+00 1.4894130278831929e+01 1 0 0
555 2 5.6791293098124811e+00 3.2726585004448019e+00 1.7808101877542544e+01 -4 -3 0
119 2 6.9163347519545013e+00 3.6373390742610519e+00 1.5035121441851469e+01 1 0 0
494 1 6.4836656133367763e+00 2.0433468003381172e-01 1.8038742205744331e+01 -3 8 0
49 3 1.0145897728916411e+01 1.7558369918893311e+00 1.5783483398971944e+01 0 0 0
376 1 6.5318544283624869e+00 2.7228254547639987e+00 1.7953972292081186e+01 -5 1 0
109 3 1.0329236996335862e+01 5.5936163613469301e+00 1.5780242240299016e+01 0 0 0
60 2 5.4988231671600740e+00 1.7333002915285933e+00 1.5612192186606180e+01 1 0 0
120 2 5.4928858938267267e+00 5.5484595134687327e+00 1.5698253617859043e+01 1 0 0
113 2 8.4201621193791762e+00 5.6040880122289360e+00 1.6543386396391810e+01 1 0 0
97 3 8.9821846393212557e+00 5.6501567121488430e+00 1.2294769094975585e+01 1 0 0
101 2 7.1600485801579312e+00 5.5416492788713363e+00 1.3037189034343507e+01 1 0 0
112 3 7.3742557216558620e+00 5.5736272375979334e+00 1.4966805957094840e+01 1 0 0
114 2 9.3522038661952909e+00 5.6858211062317636e+00 1.4211305727855363e+01 1 0 0
37 3 8.9128935301020231e+00 1.7935779683071429e+00 1.2230771035537989e+01 1 0 0
104 2 9.3091726045606187e+00 3.7645908300618420e+00 1.2209126323532852e+01 0 0 0
480 2 7.8645187745154903e+00 2.2200275542600680e+00 2.0124319483159542e+01 -6 5 0
233 1 5.6937334933326875e+00 3.3881577833406867e-01 2.1645360579778519e+01 4 0 0
310 1 8.1345832016041637e+00 3.9518936784696517e+00 2.1395011825910863e+01 1 -2 0
478 1 8.2044567655200744e+00 1.5553819165286942e+00 2.0799158693195189e+01 -6 5 0
319 1 8.7004715304440001e+00 8.1586175366524538e-01 2.2802289239406665e+01 1 -6 0
479 1 6.8948135063481875e+00 2.1560288777670160e+00 2.0255797245810616e+01 -6 5 0
351 2 9.9613385485688788e+00 4.0487167958034416e+00 1.9766110561101332e+01 3 -3 0
299 1 1.0244158761418632e+01 4.9469890590003560e+00 1.8370088081082752e+01 0 0 0
481 1 7.3698212116146804e+00 4.9527441024372854e+00 2.3612239490571991e+01 10 -5 0
553 1 9.2321242115582898e+00 3.3465946793563210e+00 1.9833407405292206e+01 -2 -9 0
297 2 5.6172344253436979e+00 5.1929227099629820e+00 1.9910903464328278e+01 8 -4 0
321 2 8.9428128228515895e+00 5.3046487757576644e-01 2.1866865049827403e+01 1 -6 0
526 1 5.5205591380928576e+00 3.9165152093637956e+00 1.8567575990277554e+01 2 -3 0
312 2 7.6660723603247645e+00 4.7805232488419902e+00 2.1782985376847840e+01 1 -2 0
298 1 9.8781381089844178e+00 8.3051416551536184e-01 2.1759170237706801e+01 3 -8 0
337 1 5.6704582922266962e+00 3.5363560063709523e+00 2.4034009483674147e+01 -1 2 0
295 1 6.3897989396225707e+00 5.0993587927084745e+00 2.0520314228747324e+01 8 -4 0
232 1 5.9470563777129026e+00 7.8912129505064288e-01 2.3051072861378032e+01 4 0 0
458 1 8.2371935211081322e+00 5.5458433906021334e+00 2.1691681379858636e+01 0 -3 0
447 2 5.2394121122800330e+00 2.7004596116798743e+00 2.3736827663967592e+01 8 6 0
182 1 8.5364117273353450e+00 7.2391267985871854e-01 1.8461497955100381e+01 -2 -3 0
370 1 9.1823210492178227e+00 5.2601662993922069e+00 2.7704360329929873e+01 -10 -1 0
468 2 7.8538965534322802e+00 2.8272254613054417e+00 2.6572437136687661e+01 -1 -4 0
491 1 6.1725670031215465e+00 2.3072789301031880e+00 2.7452273727917024e+01 -2 4 0
482 1 7.2466674844487260e+00 4.1104876590394719e+00 2.4982364514063875e+01 10 -5 0
400 1 5.5576040995200380e+00 2.0353600385938933e+00 2.8843264421099036e+01 -8 6 0
371 1 9.3232775904448708e+00 3.4843697996441185e+00 2.9364446308227901e+01 -1 -1 0
467 1 8.4248754155419814e+00 2.3154891513478475e+00 2.5913289721024260e+01 -1 -4 0
466 1 8.4245073591454123e+00 3.1584468641362147e+00 2.7287562889603340e+01 -1 -4 0
405 2 9.7176194418588882e+00 3.6935507028411361e+00 2.8465202005233483e+01 2 2 0
483 2 6.8435456293946721e+00 4.8050556451419206e+00 2.4452211266755839e+01 10 -5 0
235 1 9.7655930757757776e+00 2.9248863097682298e-01 2.5323064782684870e+01 -8 -1 0
402 2 5.3835664621388188e+00 1.8728545449496543e+00 2.7873282876681589e+01 -8 6 0
237 2 9.5144073146407635e+00 1.2121258397278802e+00 2.4931322273253940e+01 -8 -1 0