LAMMPS data file via write_data, version 5 Jun 2019, timestep = 1020000

528 atoms
3 atom types

0.0000000000000000e+00 1.3959816000000000e+01 xlo xhi
0.0000000000000000e+00 9.3065440000000006e+00 ylo yhi
0.0000000000000000e+00 3.9865699999999997e+01 zlo zhi

Masses

1 1
2 16
3 47.86

Atoms # atomic

100 2 3.0543913569853758e+00 1.1179587513610427e+00 1.7513156837887629e+00 0 -1 0
107 2 5.3281913217576697e+00 1.6784913850205359e+00 3.1688620770521960e+00 0 -1 0
103 3 1.5152740623336296e+00 2.7435208633457382e+00 4.6643530947838681e+00 0 -1 0
98 3 3.9260478027494270e+00 3.3637869914123925e-01 3.4976463895760707e-01 0 -1 0
104 3 3.8674901962880237e+00 2.9999160524348728e-01 3.2891889209968430e+00 0 -1 0
106 2 3.0151507684566190e+00 1.2099327121507226e+00 4.6418124549529738e+00 0 -1 0
108 2 2.3022647529459985e+00 3.5064626968734713e+00 3.2401566673568700e+00 0 -1 0
99 2 4.5837742488942990e+00 3.8584526099472556e+00 1.7198631173251659e+00 0 -1 0
59 2 5.9020612935674288e-01 1.7293148991329448e+00 3.1692324029830727e+00 0 -1 0
97 3 1.4344279156206161e+00 2.5221302103789651e+00 1.5323240101793507e+00 0 -1 0
1 3 6.2201411820293657e+00 2.5044410874932672e+00 1.4642210099257122e+00 -1 -1 0
7 3 6.0855172580728025e+00 2.6754854969083630e+00 4.5764153292621623e+00 -1 -1 0
105 2 4.6605884069010504e+00 4.0027076334420757e+00 4.7726373002692757e+00 0 -1 0
101 2 5.1734298819681213e+00 1.6444038249634567e+00 3.8395323272876275e-01 0 -1 0
102 2 2.5572870030611980e+00 3.3030602068260473e+00 1.8385947306035744e-01 0 -1 0
53 2 6.4853190112970127e-01 1.4820868155887257e+00 3.5245623475618659e-01 0 -1 0
51 2 1.5304989211217063e-01 3.9966747332029215e+00 1.7061394648669290e+00 0 -1 0
57 2 7.3566850597828193e-03 4.0215617593012549e+00 4.6596866949398654e+00 0 -1 0
114 2 2.2633979679741150e+00 3.6242418928033744e+00 6.2214766049910883e+00 0 -1 0
71 2 6.6668878593422320e-01 1.5565961524560139e+00 9.2403204860787600e+00 0 -1 0
110 3 3.8270604764026599e+00 2.6955031937047802e-01 6.1599124506262593e+00 0 -1 0
113 2 5.1984635225595470e+00 1.6635962815629550e+00 6.2150016676008057e+00 0 -1 0
112 2 2.8940150667605726e+00 1.0954692370300845e+00 7.6660296966551602e+00 0 -1 0
111 2 4.7285569603355162e+00 3.9693129973232568e+00 7.6727619161040179e+00 0 -1 0
13 3 6.2667773560810422e+00 2.4155001662504527e+00 7.5718231566941601e+00 -1 -1 0
116 3 3.9282000570158728e+00 1.8636636015800451e-01 9.0290921636043144e+00 0 -1 0
119 2 5.3322604685803929e+00 1.5721612358048576e+00 9.1876342490201974e+00 0 -1 0
120 2 2.4102107174796110e+00 3.5737311945659225e+00 9.1590101685245635e+00 0 -1 0
65 2 6.3710207297021959e-01 1.6110532791954402e+00 6.0386349328928004e+00 0 -1 0
109 3 1.4997040344669166e+00 2.6789410689523265e+00 7.7318219920415254e+00 0 -1 0
63 2 1.2976389624907825e-01 3.9875814771430984e+00 7.7077682255346174e+00 0 -1 0
449 1 5.4027880297539257e+00 6.3521262936595801e-01 1.2097608005131343e+01 0 -1 0
117 2 4.8160627636496498e+00 3.8541723051098220e+00 1.0749388034580601e+01 0 -1 0
115 3 1.4638401099507972e+00 2.5496237189681885e+00 1.0709477112183523e+01 0 -1 0
431 1 5.2649959317485360e+00 4.5086370574557062e+00 1.1325728668180663e+01 0 -2 0
379 1 4.8410147324594712e+00 2.5399395609461681e+00 1.3238402275660921e+01 -3 6 0
381 2 4.4289964961197095e+00 3.2866302023757390e+00 1.3861945950123548e+01 -3 6 0
193 1 3.7383518318123334e+00 1.6107900347994903e+00 1.1150391192012679e+01 -1 -1 0
118 2 3.0190369074284771e+00 1.2789949154450495e+00 1.0532728474269931e+01 0 -1 0
411 2 5.2689254054394645e+00 1.6869798891844436e+00 1.2082713523032702e+01 -1 -1 0
432 2 2.4595904686170020e+00 3.8322766547842146e+00 1.2246061406908673e+01 0 -2 0
445 1 5.1171779045360632e-01 1.7464184416415791e+00 1.3114091557599300e+01 0 -1 0
351 2 6.0603398398118036e-01 2.1509869145710319e+00 1.4835872745957071e+01 5 5 0
19 3 6.3639114690012555e+00 2.3724546049122495e+00 1.0573323555189734e+01 -1 -1 0
430 1 3.2217786466959830e+00 3.7812650237071823e+00 1.2826242762757541e+01 0 -2 0
252 2 5.8240860686541285e-01 1.6008392576562824e+00 1.2131578824287011e+01 2 -1 0
69 2 1.6196027291019369e-01 3.8881138330582821e+00 1.0685362315202553e+01 0 -1 0
380 1 4.1091808835026802e+00 2.8281324974726942e+00 1.4695516178329505e+01 -3 6 0
470 1 5.2361091514820546e-01 3.4817894673846439e-03 1.1339259337173401e+01 0 -1 0
257 1 6.2766904698131087e+00 4.6018336607264416e+00 1.8101362985400069e+01 -4 -2 0
235 1 4.8062165790852047e+00 1.4385083966636651e+00 1.6689129722038484e+01 6 7 0
522 2 2.2461667526653937e+00 2.8634238754938002e+00 1.8142462712539778e+01 -8 5 0
397 1 2.7987504754649013e+00 1.8973402331493439e+00 1.6454934537231686e+01 1 14 0
399 2 3.3423345160312148e+00 1.5468655828863507e+00 1.5754341804070858e+01 1 14 0
225 2 2.0149754554987278e+00 4.6300654596382467e+00 1.5345896613021212e+01 2 11 0
237 2 5.6274310844598885e+00 1.0281828297586932e+00 1.6932018856783419e+01 6 7 0
520 1 1.9903204976636770e+00 2.6018473826822932e+00 1.9057146592066626e+01 -8 5 0
398 1 2.8761550631313444e+00 8.2228686591218947e-01 1.5324435057317674e+01 1 14 0
242 1 9.9787947166391577e-01 4.9910585182982725e-01 1.8593213155347161e+01 1 0 0
349 1 5.0970738684200778e-01 1.5306762250576609e+00 1.5559422754465221e+01 5 5 0
236 1 5.7825951171926118e+00 4.8939188427359653e-01 1.6139774447609941e+01 6 7 0
521 1 2.9332509437599308e+00 3.5262858709721119e+00 1.8245468984091914e+01 -8 5 0
458 1 4.5482231157915045e+00 2.9452683733411422e-01 1.8415768100683021e+01 0 3 0
319 1 6.8987358390774958e+00 2.5326650288540153e+00 1.6966041670537138e+01 -1 14 0
350 1 1.1419358389350815e+00 2.9537303468946918e+00 1.5079349927013705e+01 5 5 0
360 2 5.4655705232238816e-01 3.2510568311644015e+00 2.3302607565390559e+01 2 -5 0
384 2 5.0372500138102696e+00 1.9744523397861327e+00 2.1202192977049179e+01 4 4 0
334 1 4.8702265653475907e+00 3.6830379424902264e+00 2.1445796881162412e+01 -1 -13 0
358 1 3.2122210133212459e-01 3.4385743744606274e+00 2.4215102300459144e+01 2 -5 0
336 2 4.7092796658503167e+00 4.6435006277140412e+00 2.1379194165669773e+01 -1 -13 0
233 1 1.7290229201181020e+00 4.1876637472878446e+00 2.2366996735334979e+01 0 5 0
305 1 4.4175614139258956e-01 2.0400156372437830e+00 2.0586837991477658e+01 3 4 0
304 1 1.5286644267024836e+00 9.7445070947308932e-01 2.0784325572705061e+01 3 4 0
461 1 6.0250440800961922e+00 2.7213328013651523e+00 2.4175309927836050e+01 2 -3 0
301 1 1.7306550109671419e+00 1.9818287868431659e+00 2.3117729206263952e+01 -5 -3 0
460 1 6.2713600559236067e+00 1.3203031224791091e+00 2.4694967628789218e+01 2 -3 0
303 2 2.5449240793664170e+00 1.4881982770523459e+00 2.3023983860348409e+01 -5 -3 0
302 1 3.1806690296077886e+00 1.9264844188589068e+00 2.2365176494802110e+01 -5 -3 0
383 1 4.8066853723503975e+00 1.2682600876210428e+00 2.0529691547404521e+01 4 4 0
382 1 5.5397393168282800e+00 1.5058996260106836e+00 2.1892838547059501e+01 4 4 0
462 2 6.4355103391099338e+00 1.8654080554684940e+00 2.3865662809720309e+01 2 -3 0
306 2 1.1763042215989390e+00 1.5289301791383856e+00 2.0079012576345736e+01 3 4 0
179 1 3.2811732970001977e+00 2.6665739261876018e+00 2.5684180295112782e+01 -4 -4 0
362 1 2.2262936876790902e+00 2.1490696480249611e+00 2.7480763998045667e+01 6 18 0
298 1 4.5857571267549693e+00 7.4068951558298701e-01 2.6091056210400708e+01 -1 -2 0
361 1 1.9482697891232372e+00 3.2106928465717584e+00 2.8713791928398372e+01 6 18 0
363 2 1.5666853306538784e+00 2.5739391835519525e+00 2.8081961101338322e+01 6 18 0
300 2 5.4355525612332984e+00 1.5809478226309212e-01 2.5761628931653398e+01 -1 -2 0
145 1 1.4172372939290847e+00 1.0221569439314364e+00 2.8915679356446194e+01 7 -5 0
180 2 3.0935051465900436e+00 1.7171249277977001e+00 2.5964554744952650e+01 -4 -4 0
375 2 2.7249119361218339e+00 4.3836183320180062e+00 2.9785704848264494e+01 1 -6 0
386 1 5.0496681438377244e+00 3.9472734317077212e+00 2.7624590853524641e+01 0 10 0
492 2 3.8448397575980868e+00 4.2881833173286577e+00 2.6205618115219988e+01 5 1 0
356 1 4.9787750429008328e+00 1.5730609401266785e-01 2.9290630159878738e+01 2 1 0
450 2 5.5971724741410869e+00 3.8579477223809451e+00 2.8499598147754053e+01 0 9 0
241 1 5.4052821744377830e+00 2.9840400490019507e+00 2.8754144623609257e+01 2 6 0
490 1 4.5218274769366307e+00 4.6043279611693420e+00 2.5465537200610608e+01 5 1 0
147 2 1.3060163260452844e+00 6.8754016462295897e-02 2.9212547516883312e+01 7 -5 0
357 2 5.6020668568263954e+00 8.9166146253896572e-01 2.9410529257647060e+01 2 1 0
355 1 6.4990309687386949e+00 4.3239992559780688e-01 2.9546082159689284e+01 2 1 0
240 2 4.9096384837722523e-02 4.3486537013037524e-01 2.5111507097236991e+01 3 9 0
178 1 2.6432032617443895e+00 1.3106277389998460e+00 2.5223629758906196e+01 -4 -4 0
244 1 4.0025612107782109e+00 7.4949663845739511e-01 3.2566306598943498e+01 2 3 0
509 1 2.4549919428964379e-01 3.7173667399358004e+00 3.4099814721197099e+01 0 8 0
488 1 2.0299259723545897e+00 6.3561296197614237e-01 3.3815789241732681e+01 1 13 0
464 1 6.0185176966960503e+00 3.1591458397581146e-01 3.3497519055339239e+01 4 -2 0
508 1 7.0543772198713950e-01 3.9855384228763788e+00 3.2541511594071480e+01 0 8 0
465 2 6.7454861488987792e+00 3.8802517795471103e-01 3.4153681573291408e+01 4 -2 0
468 2 2.6400610982178141e-01 4.6200634424741445e+00 3.0865664805767437e+01 9 6 0
489 2 2.7328285873986475e+00 1.2990443665015792e+00 3.3693716391807428e+01 1 13 0
487 1 2.2274068238608273e+00 2.1629345564623947e+00 3.3502686835662374e+01 1 13 0
245 1 4.9109866690062622e+00 7.4404785492623271e-01 3.1222469945582741e+01 2 3 0
185 1 2.6898352845673763e+00 4.2551906181756101e+00 3.3149180747188375e+01 -2 2 0
184 1 4.2553439342041139e+00 4.1394647814951293e+00 3.3324780027146836e+01 -2 2 0
510 2 9.6593014007024669e-01 3.4981373131199081e+00 3.3415368294825456e+01 0 8 0
186 2 3.5288135791887152e+00 4.1081894345757828e+00 3.2661035961705238e+01 -2 2 0
374 1 3.3956602387758847e+00 4.3817781828971345e+00 3.0480692963630080e+01 1 -6 0
373 1 1.9079729943045813e+00 4.5933206106997799e+00 3.0310711899215807e+01 1 -6 0
246 2 4.8012205652659370e+00 3.6640120811481419e-01 3.2116170314150267e+01 2 3 0
171 2 2.7368998933919340e+00 9.1244907896516192e-01 3.8624262338911898e+01 0 -1 0
231 2 5.7921403157218716e+00 1.1282067941027749e+00 3.6586778888863343e+01 0 4 0
163 1 2.7510022477663365e+00 3.1042952427522033e+00 3.6249567849952392e+01 3 0 0
170 1 2.9939361036684438e+00 1.4420813489693123e+00 3.7756735533170932e+01 0 -1 0
230 1 4.9552921200379849e+00 1.6068770719011916e+00 3.6487598780476333e+01 0 4 0
164 1 2.7765047905027376e+00 1.7473795304103765e+00 3.5377190063786948e+01 3 0 0
494 1 1.8414548992195867e+00 1.1570702828859825e+00 3.9006084311209378e+01 0 -1 0
219 2 4.8813805583379484e+00 3.7942659515245452e+00 3.8467928745691118e+01 0 -1 0
524 1 7.8014473135152784e-01 3.3772667523763769e+00 3.8935629449787072e+01 0 -1 0
229 1 5.9238097661909475e+00 7.2189152553797831e-01 3.5760672697625054e+01 0 4 0
475 1 5.8452976887654913e+00 3.6505135413430523e+00 3.8707682328891998e+01 0 -3 0
165 2 3.1255185836133808e+00 2.2010806323990240e+00 3.6232439705248012e+01 3 0 0
328 1 5.0509049233608190e+00 4.5248662774662378e+00 3.7879937673381882e+01 0 6 0
266 1 5.5164140471677792e+00 4.2009165533496615e+00 3.5200328353555179e+01 -5 -8 0
175 1 5.2235663023479368e+00 1.0095716984031321e-01 3.7826662801854759e+01 -2 3 0
389 1 6.6971146260540715e-01 4.4488477807984435e+00 3.7365795477817301e+01 0 0 0
131 2 5.2723590564700924e+00 6.2472347874737757e+00 3.1984412239426465e+00 0 -1 0
127 3 1.5470338744037566e+00 7.2783114534696951e+00 4.7022435209389108e+00 0 -1 0
83 2 5.9910832361176214e-01 6.3043608751216782e+00 3.2286893750331491e+00 0 -1 0
77 2 6.4849257136458438e-01 6.1988577333854504e+00 1.0215525216221941e-01 0 -1 0
123 2 4.5574573411666783e+00 8.4261968432548660e+00 1.6331980603173806e+00 0 -1 0
128 3 3.6580738788022349e+00 4.9339315281496754e+00 3.1979435178193758e+00 0 -1 0
132 2 2.3302274918391128e+00 8.1890646293035196e+00 3.2291961026407203e+00 0 -1 0
31 3 6.0813661030032637e+00 7.1638832261630174e+00 4.6700946191082657e+00 -1 -1 0
130 2 2.9100394559718086e+00 5.9247274552821398e+00 4.7533294922079454e+00 0 -1 0
124 2 2.8847056686174137e+00 5.7377803259340636e+00 1.6527000977469219e+00 0 -1 0
25 3 6.1292875303450112e+00 7.2343102173236407e+00 1.7118995566522015e+00 -1 -1 0
121 3 1.3856805968064061e+00 7.2325329884521521e+00 1.7500491154374145e+00 0 -1 0
129 2 4.8086570680925940e+00 8.5815990764193266e+00 4.7115105105670585e+00 0 -1 0
126 2 2.4446637171394463e+00 8.1096515470305235e+00 8.4802682434459875e-02 0 -1 0
122 3 3.8304011806718661e+00 4.6725376383869399e+00 3.0703622513878692e-01 0 -1 0
125 2 5.2578014127698642e+00 6.1510500800601493e+00 2.5357751340568579e-01 0 -1 0
75 2 9.9332836238558347e-02 8.5760195528236594e+00 1.6420339875829018e+00 0 -1 0
30 2 6.8602011798786604e+00 8.1194554348647703e+00 1.7137361243457550e-01 -1 -1 0
143 2 5.2553340555141164e+00 6.2963655692504839e+00 9.1197821553090890e+00 0 -1 0
89 2 5.4924566694796206e-01 6.3905984404088043e+00 6.2285000283946186e+00 0 -1 0
137 2 5.2443354818070098e+00 6.3162725838379483e+00 6.2508747132692486e+00 0 -1 0
135 2 4.7828307963346663e+00 8.6752176759335207e+00 7.6385422163480223e+00 0 -1 0
140 3 3.9038312666800024e+00 4.8274115950561942e+00 9.2003719851146428e+00 0 -1 0
134 3 3.8309983397840899e+00 4.9347734775358889e+00 6.3325744420042493e+00 0 -1 0
37 3 6.2526249393504418e+00 7.2676131408458708e+00 7.5559640331875881e+00 -1 -1 0
136 2 3.0465305604740567e+00 5.9011594930721829e+00 7.7211842462366498e+00 0 -1 0
133 3 1.3937048522594817e+00 7.3058608890662438e+00 7.7285163165698894e+00 0 -1 0
138 2 2.4368200223322547e+00 8.1535901414513479e+00 6.1284578237863645e+00 0 -1 0
144 2 2.4381640418646171e+00 8.1452057743241610e+00 9.2276194182640303e+00 0 -1 0
95 2 7.0137387312214761e-01 6.2707436959464813e+00 9.0975232596847615e+00 0 -1 0
87 2 4.0741718636796098e-02 8.7416721652085236e+00 7.6597111118829879e+00 0 -1 0
514 1 1.3447768257185577e+00 7.8562938210119633e+00 1.4710522680138732e+01 6 2 0
152 1 5.6333500949070174e+00 6.1125425008279759e+00 1.3566333842734293e+01 2 3 0
93 2 3.2529544718881703e-01 8.6251043656124047e+00 1.0615615595668693e+01 0 -1 0
220 1 4.1576939932333570e+00 6.2480146109241952e+00 1.1718488467269376e+01 0 -1 0
142 2 2.9999631344863507e+00 5.8220429443916588e+00 1.0587192848746380e+01 0 -1 0
141 2 4.9077580208567815e+00 8.6595828868871578e+00 1.0656960284885045e+01 0 -1 0
222 2 5.1541885080152152e+00 6.2648799181025847e+00 1.1891777016509176e+01 0 -1 0
385 1 4.1780469505983620e+00 8.3710845347815752e+00 1.1274049708263655e+01 0 -1 0
192 2 7.0356721014110590e-01 6.1557966610627979e+00 1.2105769635254649e+01 0 -1 0
387 2 2.7611640930472174e+00 8.2794776315414342e+00 1.2021273675816577e+01 0 -1 0
400 1 7.7353620633546993e-01 5.2391210255956411e+00 1.1855477551419375e+01 0 -1 0
43 3 6.2265804757597563e+00 7.0515899215467908e+00 1.0537617586381486e+01 -1 -1 0
139 3 1.7420241944199297e+00 7.1116700795177481e+00 1.0754174453973553e+01 0 -1 0
376 1 2.3867542495639946e+00 8.4762707801445050e+00 1.3669497593193089e+01 0 -2 0
507 2 5.0803524790256815e-01 6.7549645469112720e+00 1.4602776384332165e+01 6 7 0
505 1 5.7883398689852195e-01 6.3126889816167262e+00 1.3660108563231574e+01 6 7 0
153 2 5.7430557598622718e+00 5.6249205723901419e+00 1.4418381576035337e+01 2 3 0
261 2 6.4763379737565279e+00 8.9394051765508546e+00 1.4866103321645518e+01 3 2 0
378 2 2.1354592718662806e+00 8.6161482994532292e+00 1.4615131154197547e+01 0 -2 0
151 1 5.2466584059581391e+00 4.7631040249034928e+00 1.4251927901278821e+01 2 3 0
194 1 2.5419743840572293e+00 9.2444454661771456e+00 1.1775058259899426e+01 -1 -1 0
295 1 2.6504432054709515e+00 4.6642572599415866e+00 1.1705948112992306e+01 1 1 0
260 1 5.7099134579910382e+00 8.3227176853545703e+00 1.4907656991044815e+01 3 2 0
224 1 2.8454322089271304e+00 4.7388988936772591e+00 1.5830442246121919e+01 2 11 0
177 2 5.7326028004358882e+00 4.9797147994533688e+00 1.8892960646979038e+01 -6 1 0
182 1 3.5860869692818471e+00 6.4193983270932886e+00 1.7067374054345322e+01 2 3 0
253 1 4.5309099621087929e+00 6.5724603979938214e+00 1.5220377962624795e+01 -1 0 0
255 2 4.0807997734866301e+00 7.2140433379069879e+00 1.5824584316769107e+01 -1 0 0
183 2 3.5161004368398485e+00 5.6836672416167193e+00 1.7746670913985906e+01 2 3 0
254 1 3.4201778779553567e+00 7.7596699339345152e+00 1.5361996827057242e+01 -1 0 0
200 1 1.6551245855424808e+00 6.8587600254706214e+00 1.9821068432489295e+01 2 -2 0
442 1 6.1141278014946101e+00 6.5153908226488095e+00 1.9484484686773015e+01 -1 -6 0
181 1 2.7797464929790068e+00 5.9024994639658175e+00 1.8303806632059857e+01 2 3 0
457 1 5.0765736923236293e+00 8.6922642555061582e+00 1.9469021948189337e+01 0 2 0
446 1 1.8995095498646126e+00 8.7161520306542588e+00 1.7716323617802161e+01 -2 2 0
201 2 1.5389476710647210e+00 5.9164024519778327e+00 1.9545211238455686e+01 2 -2 0
176 1 4.8984532544980475e+00 5.2960686185852612e+00 1.8357117603628090e+01 -6 1 0
444 2 6.4820908585792960e+00 7.3352368404237307e+00 1.9879213313079379e+01 -1 -6 0
346 1 2.2634377581816068e-01 5.0016621353672939e+00 1.8238978765267674e+01 -2 4 0
223 1 1.5181516591492823e+00 5.4390074396054073e+00 1.5190001086018606e+01 2 11 0
459 2 4.2553467511081911e+00 9.2545850063104478e+00 1.9261960934304962e+01 0 2 0
268 1 6.9525082516191352e+00 6.3993986407417580e+00 1.6382236389648490e+01 1 -6 0
243 2 1.0628950158733983e+00 9.2599652211470822e+00 1.7672446495570188e+01 1 -1 0
484 1 5.3936289777002724e+00 8.8132032718175886e+00 2.2357748313877025e+01 2 1 0
209 1 3.6451939671976588e+00 7.7093549000275354e+00 2.3867250508213861e+01 4 -2 0
332 1 2.9374951990058844e+00 8.6643772948777915e+00 2.0224846725251407e+01 3 3 0
472 1 1.6920152890773594e+00 6.4756938327410882e+00 2.3224191752304911e+01 4 -4 0
511 1 6.4542966375520079e+00 5.5925105946265861e+00 2.4581229830090695e+01 2 10 0
333 2 2.1076937036495522e+00 8.3519061716181646e+00 2.0663074998913149e+01 3 3 0
473 1 9.9773154471823211e-01 7.7462343303881633e+00 2.3918961370936078e+01 4 -4 0
512 1 5.0682170262080337e+00 5.9537962721364854e+00 2.4102592943977420e+01 2 10 0
331 1 2.1605694464891116e+00 8.1934316674047079e+00 2.1694406670045325e+01 3 3 0
486 2 6.3374426559539359e+00 8.9016880445619222e+00 2.2132409946253855e+01 2 1 0
474 2 1.7146337342666274e+00 7.4516089934334575e+00 2.3288020057995002e+01 4 -4 0
485 1 6.2909332322525051e+00 8.3833740456732571e+00 2.1281894437880677e+01 2 1 0
210 2 4.6158324592901652e+00 7.5129262490623860e+00 2.3946789377898881e+01 4 -2 0
199 1 1.9135542806998294e+00 5.5284846559017291e+00 2.0389963541853064e+01 2 -2 0
208 1 5.0023018326024360e+00 8.1190080345654767e+00 2.4676263578619654e+01 4 -2 0
344 1 8.6134603988154215e-02 7.7344240001076097e+00 2.1198863904924618e+01 1 6 0
513 2 5.5995874010700746e+00 5.1461234075545681e+00 2.4295650944709273e+01 2 10 0
234 2 2.1918406207182421e+00 4.9475292696206479e+00 2.1940614087213920e+01 0 5 0
421 1 6.6404575920718605e+00 4.9644996205114600e+00 2.1636138560068659e+01 -1 0 0
335 1 4.9335779127333064e+00 4.6990165500811134e+00 2.0406246775557236e+01 -1 -13 0
232 1 3.1201455424910116e+00 4.8088768697353332e+00 2.1998229170231337e+01 0 5 0
299 1 5.7040641411405701e+00 9.0103565729198731e+00 2.6527641991852242e+01 -1 -3 0
146 1 9.5842391770897140e-01 8.8164201556399906e+00 2.8468082634132639e+01 7 -6 0
491 1 3.3441192251266698e+00 5.0801427021558565e+00 2.6392931012576458e+01 5 1 0
476 1 2.1214029787410777e+00 5.5924858508822988e+00 2.8416456816638597e+01 3 3 0
189 2 3.4803895346897484e-01 4.8288536629401415e+00 2.5499385315095132e+01 -3 1 0
307 1 2.9250924232044424e+00 8.4002923764313131e+00 2.9550918699506212e+01 1 -1 0
409 1 1.1134817183663777e+00 6.5223683459887338e+00 2.7657610834898765e+01 0 2 0
477 2 2.0071698520107319e+00 6.0784891959729155e+00 2.7578919737673537e+01 3 3 0
353 1 5.4682658388490220e+00 5.4544343505420230e+00 2.9517068761807540e+01 -4 -3 0
263 1 6.5776576319043958e+00 7.5548287675498704e+00 2.8426056982862814e+01 3 -4 0
309 2 3.7139084111930556e+00 7.9103664554603794e+00 2.9148958469229122e+01 1 -1 0
264 2 6.8374276819065329e+00 7.9078654055164721e+00 2.7551601287411781e+01 3 -4 0
188 1 9.7290993053974262e-01 5.1169310930815124e+00 2.6197409944266735e+01 -3 1 0
308 1 3.2122926283974054e+00 7.3582870458359277e+00 2.8482828761019242e+01 1 -1 0
354 2 5.7901013136361215e+00 6.3960883365886856e+00 2.9764056358409764e+01 -4 -3 0
352 1 4.9127184559461856e+00 6.8551486525094436e+00 2.9856949014541787e+01 -4 -3 0
526 1 5.4261999359312085e-02 8.6496519959634632e+00 2.6651640026764145e+01 8 -1 0
483 2 3.4467723343777732e+00 7.0481251830100842e+00 3.3097856547778463e+01 -4 7 0
323 1 2.0324360579007750e+00 7.7301170545946114e+00 3.3751230168812043e+01 8 6 0
481 1 3.5699758360243399e+00 6.1055148973308917e+00 3.2996081277860377e+01 -4 7 0
482 1 4.2961224618101985e+00 7.4893214765259062e+00 3.2806925757936291e+01 -4 7 0
267 2 5.3554052987853629e+00 4.8982124250367818e+00 3.4509477191511678e+01 -5 -8 0
324 2 1.1418211559744977e+00 8.1875534935354146e+00 3.3812788261984899e+01 8 6 0
275 1 4.4303579711734326e-01 8.5483415260060465e+00 3.0906506376828936e+01 7 7 0
274 1 3.6306756342374080e-01 8.0947661018742050e+00 3.2464995355026844e+01 7 7 0
322 1 6.7344220102224339e-01 7.9020175659461733e+00 3.4638706116458700e+01 8 6 0
283 1 6.9498828260221774e+00 6.2376314975637985e+00 3.0944337486416575e+01 -1 0 0
340 1 1.7295077433831838e+00 8.4030968778888244e+00 3.9355559517883485e+01 0 -1 0
172 1 5.9065915391119663e+00 8.4259586482557953e+00 3.8940073595214088e+01 5 -8 0
288 2 5.0316063860960778e+00 8.7601616069934494e+00 3.8566927615362687e+01 0 -1 0
342 2 3.0886170977014071e+00 5.9370374627027358e+00 3.8558277457145998e+01 0 -1 0
390 2 1.3906997759322259e+00 4.9088296284627972e+00 3.6835397916096476e+01 0 0 0
217 1 5.0621532727741085e+00 7.3817740437356587e+00 3.6984770108290121e+01 -2 -6 0
265 1 5.2283491162887401e+00 5.7758531604145720e+00 3.5025691868275793e+01 -5 -8 0
388 1 1.0083885914656230e+00 5.5398781070652907e+00 3.6192952221375982e+01 0 0 0
311 1 5.9037040970847761e+00 5.9635366686135622e+00 3.9392026981334197e+01 -1 -1 0
258 2 1.2190991833859845e-01 8.5612529330924367e+00 3.8699263519801548e+01 0 -1 0
341 1 2.3226125894668357e+00 5.6354506534134838e+00 3.8023942696545795e+01 0 -1 0
523 1 2.7343091408511664e+00 6.7353726993903731e+00 3.9088635851692260e+01 0 -2 0
370 1 1.9681784322176815e-01 6.9237047018976865e+00 3.9430125977364284e+01 0 -1 0
312 2 4.9867150490316323e+00 7.2028185475833126e+00 3.6042410545977468e+01 -3 -5 0
286 1 4.4859379423464594e+00 7.8842790929765547e+00 3.5719175517446182e+01 -2 -5 0
55 3 1.0837481318255335e+01 2.6740535002344576e+00 4.4360359205201663e+00 -1 -1 0
60 2 1.1766322342500752e+01 3.5442988287658586e+00 3.1721446243377982e+00 -1 -1 0
49 3 1.0812425701587491e+01 2.4650909677500321e+00 1.5477974194777200e+00 -1 -1 0
11 2 9.9011194208660331e+00 1.7272182501932163e+00 3.0856646078600405e+00 -1 -1 0
3 2 9.2642875118559509e+00 3.8124023536795466e+00 1.6520168739586927e+00 -1 -1 0
10 2 7.5966595432120734e+00 1.1104897711511850e+00 4.6241807134779638e+00 -1 -1 0
56 3 1.3286062959009993e+01 3.6959431197623382e-01 3.1870335601366038e+00 -1 -1 0
58 2 1.2171236581668168e+01 1.1061465484158064e+00 4.5124595290250067e+00 -1 -1 0
8 3 8.5000495545266030e+00 1.9637549370627694e-01 3.2269900516295786e+00 -1 -1 0
52 2 1.2226508862455416e+01 1.1786180341852226e+00 1.7675540477496421e+00 -1 -1 0
4 2 7.6076815682980410e+00 1.1203436874253854e+00 1.7149340972819265e+00 -1 -1 0
9 2 9.4227021590532445e+00 4.0249380178243763e+00 4.6195947730073605e+00 -1 -1 0
54 2 1.1690296858923460e+01 3.6215182422946799e+00 3.5011648486191421e-01 -1 -1 0
6 2 7.0975417340716236e+00 3.4551977267046152e+00 6.5528454609139072e-02 -1 -1 0
50 3 1.3119239643655792e+01 3.5339577079062678e-01 9.6830898030849294e-02 -1 -1 0
5 2 9.9052068470722361e+00 1.4005683683804446e+00 1.0786125457023533e-01 -1 -1 0
12 2 6.9999253293806252e+00 3.5875473536448279e+00 3.2315679706011036e+00 -1 -1 0
62 3 1.3097960221713379e+01 5.3530624052360587e-01 6.1012815380933096e+00 -1 -1 0
61 3 1.0807282705530865e+01 2.6529154522684744e+00 7.5384076951803438e+00 -1 -1 0
64 2 1.2337992429066938e+01 1.1120768021857650e+00 7.6349173774338643e+00 -1 -1 0
68 3 1.3229332004936381e+01 2.2337310516143505e-01 9.0706086794393208e+00 -1 -1 0
14 3 8.5337500215187880e+00 2.6815216031600664e-01 6.0989058293264735e+00 -1 -1 0
72 2 1.1710310192287858e+01 3.5735935096053493e+00 9.2018392350463607e+00 -1 -1 0
17 2 9.8924191930407659e+00 1.6142055412894616e+00 6.2722288326956308e+00 -1 -1 0
23 2 9.9815913739224502e+00 1.6379694149490667e+00 9.0712361985745158e+00 -1 -1 0
20 3 8.5955470955486852e+00 9.9763262688231352e-02 9.2109812748353175e+00 -1 -1 0
66 2 1.1732889500970360e+01 3.4544397862466782e+00 6.0654008312921368e+00 -1 -1 0
16 2 7.5701139154084389e+00 9.9913784581542675e-01 7.5960297394776424e+00 -1 -1 0
15 2 9.4946133651352174e+00 4.0474353692107190e+00 7.6954132835180404e+00 -1 -1 0
18 2 7.1833438053334566e+00 3.4053174692072945e+00 6.0835701055071310e+00 -1 -1 0
24 2 7.1146648988590000e+00 3.3801128587923794e+00 9.0988091742470925e+00 -1 -1 0
439 1 1.2955178353640925e+01 2.6511660134810522e+00 1.4838415751876488e+01 5 -1 0
447 2 1.0001885430941584e+01 1.2886084678163792e+00 1.2207250038508423e+01 -1 -1 0
250 1 1.2976077745736227e+01 1.6316103361211642e+00 1.1384868474452221e+01 1 0 0
21 2 9.3447105427301622e+00 3.7888263316720785e+00 1.0539458308654076e+01 -1 -1 0
368 1 8.9989744365907143e+00 2.7051485546185097e+00 1.4240070130422533e+01 4 5 0
67 3 1.0750524907129725e+01 2.5962857755545841e+00 1.0447774301874169e+01 -1 -1 0
369 2 8.3219923542537106e+00 3.3677227542687111e+00 1.4541208924284973e+01 4 5 0
190 1 1.1700747165669133e+01 3.4800383117187002e+00 1.3256133748957875e+01 -1 -1 0
221 1 9.0828750519214889e+00 1.0364531359223705e+00 1.2014502998344359e+01 -1 0 0
280 1 1.0420249956149044e+01 4.2229780922200544e-01 1.2424116854177639e+01 0 0 0
70 2 1.2323189367216958e+01 1.3018484330273756e+00 1.0686602282438500e+01 -1 -1 0
402 2 1.1450173027410111e+01 3.6798083322132147e+00 1.2243235353889729e+01 -1 -1 0
247 1 7.4620546252926125e+00 3.3742386965660782e+00 1.3197393864679434e+01 -3 0 0
22 2 7.6123377745234588e+00 1.0682044446556169e+00 1.0418860960709639e+01 -1 -1 0
441 2 1.2064784140970167e+01 3.1303114958341358e+00 1.4613480683194988e+01 5 -1 0
401 1 1.2033420788840322e+01 4.4116272743073379e+00 1.1977845061150756e+01 -1 -1 0
410 1 7.5478279251202895e+00 4.3789979147381564e+00 1.1811893431436584e+01 -1 -1 0
366 2 7.0976427713644519e+00 3.5516424239926541e+00 1.2215794175665756e+01 4 -6 0
161 1 9.7715702750575293e+00 6.4098042435276981e-01 1.5620043251325235e+01 0 2 0
367 1 7.8615479060193572e+00 3.1529022526827899e+00 1.5443065991959738e+01 4 5 0
214 1 1.0234120318209515e+01 2.3553537905726181e+00 1.7525077089539689e+01 9 2 0
396 2 9.5341521555332509e+00 3.0306044167120980e+00 1.8706384371721089e+01 1 12 0
321 2 7.2464764150289849e+00 3.4014822733226215e+00 1.7105840180179936e+01 -1 14 0
215 1 1.1428386306657693e+01 1.3944089771653352e+00 1.7054455142747905e+01 9 2 0
440 1 1.1449094194476078e+01 3.0855948064114109e+00 1.5431119068373297e+01 5 -1 0
216 2 1.0806660346233153e+01 2.1105618378349855e+00 1.6674126817038122e+01 9 2 0
394 1 1.0021251787776633e+01 3.8754268402003604e+00 1.8800792352206564e+01 1 12 0
320 1 7.9610199160250339e+00 3.2242338063775753e+00 1.7836807477397571e+01 -1 14 0
395 1 9.2231131898226266e+00 2.6619647405403652e+00 1.9690664882222620e+01 1 12 0
167 1 8.3879088810297020e+00 9.0388863665853902e-01 1.9761866363038084e+01 -3 -6 0
162 2 9.3762165403141235e+00 1.4922025097733993e-02 1.4997897846192492e+01 0 2 0
423 2 7.5363241083604242e+00 4.4888814747994967e+00 2.1846681567922165e+01 -1 0 0
428 1 1.2165986710077917e+01 1.4254467975277287e+00 2.1558578690289643e+01 1 10 0
359 1 1.3743434772557727e+01 2.9057037163052475e+00 2.2726715178592379e+01 1 -5 0
166 1 7.5010913598498687e+00 1.7301210899433612e+00 2.0894711639352028e+01 -3 -6 0
427 1 1.2094712988901586e+01 2.9679997130717815e+00 2.1349419835801221e+01 1 10 0
429 2 1.2725543965124128e+01 2.2544490005679574e+00 2.1504352223623314e+01 1 10 0
479 1 9.5101368955605938e+00 6.6395021427410883e-01 2.1710672118643952e+01 -5 7 0
168 2 8.3780129715304152e+00 1.4971782918523566e+00 2.0590030792178293e+01 -3 -6 0
480 2 1.0376072505904109e+01 2.9347655853467064e-01 2.1978201602747355e+01 -5 7 0
422 1 7.3077169065758989e+00 4.2753499575210769e+00 2.2839525610039431e+01 -1 0 0
239 1 1.3291533690988954e+01 1.3295001268135773e-01 2.4518147936535133e+01 2 9 0
150 2 1.3079356335842155e+01 2.5897852945694519e+00 2.6917207074654989e+01 2 3 0
149 1 1.3937288306365124e+01 2.4643447471350237e+00 2.7445754327985746e+01 2 3 0
294 2 1.0884751046658835e+01 2.3625180170011637e+00 2.8534778688146762e+01 -1 3 0
148 1 1.3214388969167503e+01 3.3573784009617174e+00 2.6292275385920263e+01 2 3 0
293 1 1.0108370137395097e+01 2.9344800395074588e+00 2.8746561022331104e+01 -1 3 0
292 1 1.1558648187816473e+01 2.7056696164506002e+00 2.7937342847904674e+01 -1 3 0
212 1 1.0090380881533077e+01 6.1306950568463947e-01 2.7849608010272778e+01 -3 4 0
238 1 1.3623621592755622e+01 1.1747930264047075e+00 2.5591677498225071e+01 2 9 0
518 1 1.3402406778563888e+01 1.6771738372940257e+00 2.9759843246299273e+01 0 -5 0
517 1 1.1937710318729948e+01 2.2315287035203721e+00 2.9683976492328064e+01 0 -5 0
290 1 1.0298221795354856e+01 4.3086543044157795e+00 3.1038860414132735e+01 3 1 0
191 1 1.2277868749855189e+01 2.9395993478241134e+00 3.3671710918286394e+01 -1 5 0
365 1 1.2783169989295962e+01 1.6708285795551105e+00 3.1742594877636318e+01 2 -1 0
337 1 8.6528901578440482e+00 2.2685873193629236e-01 3.1111944522148022e+01 -1 5 0
205 1 9.2130066919448375e+00 1.3251406084065576e+00 3.2959063915982441e+01 -2 6 0
291 2 9.5033133062496837e+00 3.7214948990304531e+00 3.0975714264028401e+01 3 1 0
466 1 1.3671478783767764e+01 3.8161701630410874e+00 3.0536127666126365e+01 8 6 0
207 2 9.5936958803924703e+00 1.0911127989926626e+00 3.2045935779206324e+01 -2 6 0