LAMMPS data file via write_data, version 5 Jun 2019, timestep = 1020000

528 atoms
3 atom types

0.0000000000000000e+00 1.3959816000000000e+01 xlo xhi
0.0000000000000000e+00 9.3065440000000006e+00 ylo yhi
0.0000000000000000e+00 3.9865699999999997e+01 zlo zhi

Masses

1 1
2 16
3 47.86

Atoms # atomic

132 2 2.8418861321480211e+00 3.2695933520593039e+00 3.0292382034951819e+00 1 0 0
81 2 6.2459170686587751e-01 3.8579467839042332e+00 4.5029220137029364e+00 1 0 0
75 2 4.7650066409878888e-01 3.7352849957646752e+00 1.5085708283227128e+00 1 0 0
31 3 6.7223732667605409e+00 2.2609108896298591e+00 4.5181524510136484e+00 0 0 0
124 2 3.4580352609239950e+00 9.5884426018841373e-01 1.5446920062918437e+00 1 0 0
123 2 5.1635602689852904e+00 3.6883695537250869e+00 1.5947656130646075e+00 1 0 0
131 2 5.6903273156117242e+00 1.4065413396777819e+00 3.1450169344231274e+00 1 0 0
98 3 4.0702792765206377e+00 4.5630734890649451e+00 1.3456134880332044e-01 1 -1 0
127 3 2.0713770167306764e+00 2.4373713864224378e+00 4.4137457086002208e+00 1 0 0
130 2 3.3169987049818843e+00 8.2275608465580319e-01 4.5525582865752359e+00 1 0 0
129 2 5.1469942983213004e+00 3.7254847337673072e+00 4.5840728347757977e+00 1 0 0
121 3 1.8775949587503822e+00 2.2946327305823826e+00 1.2580170408728863e+00 1 0 0
83 2 1.0504368066250813e+00 1.4075235332766916e+00 2.9614312515071806e+00 1 0 0
25 3 6.4251062270551698e+00 2.2276524200717005e+00 1.4076281912536281e+00 0 0 0
128 3 4.2191328860862489e+00 1.5768607729645587e-01 3.0659211420672556e+00 1 0 0
104 3 4.2920152201932726e+00 4.5824716215393231e+00 3.1522683913950003e+00 1 -1 0
136 2 3.3643350130852725e+00 1.0168100967419833e+00 7.3530522796599760e+00 1 0 0
95 2 1.0644014751641426e+00 1.4112756940149540e+00 8.9941278173203596e+00 1 0 0
133 3 1.9136709283525184e+00 2.3128377221851872e+00 7.2988596833052899e+00 1 0 0
138 2 2.7426151960823812e+00 3.2630835793768713e+00 6.0141903239470640e+00 1 0 0
135 2 5.2410808720793280e+00 3.8834035215912772e+00 7.5283704852666071e+00 1 0 0
37 3 6.5792033620137760e+00 2.4047873319488304e+00 7.4777464582289541e+00 0 0 0
143 2 5.5866388260307991e+00 1.4227534277695719e+00 9.0351863431222128e+00 1 0 0
87 2 5.1855427189857639e-01 3.7573722033380546e+00 7.3844137432976558e+00 1 0 0
144 2 2.7930773754334597e+00 3.3823589284297686e+00 8.9195438579254933e+00 1 0 0
89 2 1.0013911137206815e+00 1.4626257422222291e+00 5.9048491388185109e+00 1 0 0
137 2 5.6996343193970151e+00 1.3746146932212178e+00 6.0127103067596943e+00 1 0 0
140 3 4.3636227497338034e+00 1.1346299100380008e-01 8.9106808797021966e+00 1 0 0
134 3 4.4389506878195659e+00 6.9084109029828866e-02 6.0082830956603033e+00 1 0 0
386 1 5.5915625229177497e+00 4.5052662074576748e+00 1.1008895591118295e+01 1 0 0
449 1 3.8447258102345052e+00 3.1316434562728919e+00 1.1600838589548291e+01 1 -1 0
139 3 1.8814932838290475e+00 2.5535232000892134e+00 1.0368708537189454e+01 1 0 0
192 2 6.5376188077790087e-01 1.4802729361337266e+00 1.1937600319078408e+01 1 0 0
142 2 3.3838818677134395e+00 9.2152033705396497e-01 1.0382138967481078e+01 1 0 0
93 2 6.3556395307359748e-01 3.7811599274671419e+00 1.0274456330429325e+01 1 0 0
222 2 5.7225556248462954e+00 1.1752594430563155e+00 1.1819021148030908e+01 1 0 0
387 2 2.9588445264413816e+00 2.9021704474425256e+00 1.1977920012584475e+01 1 0 0
505 1 3.1563012212109767e+00 1.8373667212318390e+00 1.3444067807289066e+01 2 5 0
43 3 6.7468983415183601e+00 2.3274398991756353e+00 1.0497688476826058e+01 0 0 0
141 2 5.1854033608960322e+00 3.7761186637254585e+00 1.0456087455900603e+01 1 0 0
430 1 5.9402938403263912e+00 8.2407613748129882e-01 1.2708200531868608e+01 1 0 0
382 1 4.0409207364193440e+00 1.0096456128683335e+00 1.1114787994462645e+01 2 -1 0
507 2 3.2253442285792469e+00 1.3981941872997685e+00 1.4325890119284731e+01 2 5 0
244 1 6.0685315912701232e-01 1.5341267906852654e+00 1.2917170514403370e+01 2 3 0
506 1 2.3094403925604987e+00 9.7721565520850207e-01 1.4558121064087812e+01 2 5 0
289 1 4.6805317358999314e+00 5.7827676320087185e-01 1.4586001977606855e+01 -1 7 0
512 1 2.7756369111924193e+00 4.1460169458241181e+00 1.3202025969834240e+01 2 5 0
291 2 5.6233908173200167e+00 2.6484435981483900e-01 1.4595490158568859e+01 -1 7 0
524 1 6.7762466574890938e+00 3.2033744883399700e+00 1.4932955634461855e+01 3 -8 0
153 2 4.1784527016521533e+00 2.8220360757017744e+00 1.6990932815018290e+01 0 -5 0
419 1 1.3627017176810257e+00 3.9092284973514659e+00 1.6868299080900321e+01 5 -3 0
314 1 6.8112926479849623e-01 7.1961224254908307e-01 1.9334030548760605e+01 -1 -3 0
315 2 1.1506378450851149e+00 1.8062626019423347e-01 1.8669842197254493e+01 -1 -3 0
152 1 3.2463168635837443e+00 2.3604402723025131e+00 1.6818088624043401e+01 0 -5 0
375 2 4.8700388696353691e+00 8.4606770727787473e-01 1.9718108141653307e+01 -4 3 0
252 2 6.6855584285965834e+00 1.3310071276001707e+00 1.6925976921635883e+01 0 1 0
420 2 1.3466574191619027e+00 2.9690774809939380e+00 1.7175180090827890e+01 5 -3 0
418 1 5.6176272022428797e-01 2.8066066516483406e+00 1.7694046394977445e+01 5 -3 0
284 1 5.3264718919455909e+00 4.1784305255056484e+00 1.6280160706269175e+01 6 15 0
443 1 3.2787854970602881e+00 3.4075015569000411e+00 1.8748850084052254e+01 -5 -7 0
151 1 4.8128648193317947e+00 2.0654985633554346e+00 1.6973670367094424e+01 0 -5 0
290 1 6.0250821928897098e+00 7.1703868542483662e-01 1.5357449274634376e+01 -1 7 0
313 1 2.0408613375611449e+00 1.2078279125046627e-01 1.9040146978332757e+01 -1 -3 0
285 2 6.1974931707176912e+00 4.4157518322850766e+00 1.5991863803105383e+01 6 15 0
374 1 5.1311502638460667e+00 1.5810691339247012e+00 1.9180857473275921e+01 -4 3 0
444 2 3.5426939865959342e+00 3.5011528903529099e+00 1.9670531494030758e+01 -5 -7 0
251 1 6.7347635834565782e+00 6.4223887068305974e-01 1.7629547135715118e+01 0 1 0
227 1 4.1759740071681484e-01 2.9498184104158742e+00 1.5334311408955475e+01 -2 4 0
208 1 2.1247646395104773e+00 7.1979313801833789e-01 2.1954172028914595e+01 -1 5 0
481 1 5.2403066327049457e+00 2.7014485115508449e+00 2.3692476231412449e+01 -4 13 0
355 1 2.1438623656722097e-02 1.6957544018524549e+00 2.2484827845680957e+01 -4 2 0
357 2 9.0406766918553061e-01 1.7566145260265860e+00 2.2889809933117046e+01 -4 2 0
339 2 6.4615910969456571e+00 3.8952115198602573e+00 2.0756555676474488e+01 5 5 0
482 1 6.7142593018441294e+00 2.2048018164683914e+00 2.3810872937154233e+01 -4 13 0
483 2 6.1720279266216167e+00 2.8685310565237154e+00 2.3363176909250178e+01 -4 13 0
210 2 2.8912240650280769e+00 3.1507348224037141e-01 2.1554650242506426e+01 -1 5 0
356 1 9.5366459634160872e-01 2.7739853655254016e+00 2.2816001722177234e+01 -4 2 0
168 2 3.7937820165686107e+00 2.2101644151470525e+00 2.4369113667077887e+01 -2 -2 0
373 1 4.1365289008548487e+00 1.0606786101675176e+00 2.0343018122175106e+01 -4 3 0
488 1 6.4408481352182108e+00 1.8147584406975120e-01 2.0470038182107324e+01 -4 3 0
337 1 6.4925412974746468e+00 3.2772727632750374e+00 2.1554031796855735e+01 5 5 0
338 1 5.5976815237826276e+00 3.6436021350778005e+00 2.0332672735926852e+01 5 5 0
167 1 4.2360028142523696e+00 1.3740875709734608e+00 2.4713484975881176e+01 -2 -2 0
442 1 3.1023957805404327e+00 4.3421984131845512e+00 1.9956778683404565e+01 -5 -7 0
527 1 2.6066342109415492e+00 4.3501058162165371e+00 2.9664226992320732e+01 -3 -7 0
193 1 2.0130574755694841e+00 9.9972690205890213e-01 2.9897714873221950e+01 -1 2 0
249 2 3.4865934839441635e+00 4.5206490408253313e+00 2.5946375712432928e+01 -1 15 0
345 2 9.6517631129266934e-01 1.7970612881322987e+00 2.8669610551049654e+01 -2 2 0
248 1 3.0233149454582606e+00 4.3100999244873943e+00 2.6768622130712526e+01 -1 15 0
253 1 4.4075450023453602e+00 1.6038262952308970e+00 2.7541545078899379e+01 5 7 0
343 1 7.5771839975685606e-01 1.3467573482721666e+00 2.7834435144087131e+01 -2 2 0
528 2 2.7424192779309644e+00 3.9683954849592249e+00 2.8742051464630311e+01 -3 -7 0
255 2 4.7553291312788168e+00 2.2517108311537202e+00 2.8198171763122581e+01 5 7 0
293 1 6.5105947780063076e+00 2.8148215621709896e+00 2.6952796582787382e+01 1 -3 0
526 1 1.9891608648393813e+00 3.2818394783784286e+00 2.8575586633806846e+01 -3 -7 0
254 1 4.0485588136287420e+00 2.7930664796597227e+00 2.8489058075386822e+01 5 7 0
496 1 5.7404617203978114e+00 7.6648764559407434e-01 2.9023189726647427e+01 5 4 0
166 1 3.8089221877993475e+00 2.8364547021873077e+00 2.5147277745998554e+01 -2 -2 0
326 1 4.0180786153407277e-01 1.0805655081555736e+00 2.4999760457519457e+01 0 -7 0
240 2 4.9904543002491009e+00 2.9919506615797391e+00 3.4458188841586740e+01 -3 7 0
461 1 6.8995790965350414e+00 3.6553193442961818e-01 3.2825329197830932e+01 -1 -4 0
238 1 4.5444026062605856e+00 2.5808871565808058e+00 3.3737801559522936e+01 -3 7 0
499 1 1.7617108940269035e+00 3.5813815426265680e+00 3.4581822512637672e+01 0 3 0
501 2 9.4415042591672194e-01 3.2347092199715086e+00 3.4105388301966236e+01 0 3 0
322 1 9.5942167635791753e-01 8.2871802195308342e-01 3.1788873268978591e+01 -1 1 0
324 2 2.3752508335892838e-01 1.4755181405826081e+00 3.2137925752173878e+01 -1 1 0
191 1 5.1184045821742581e+00 2.7928505496112885e+00 3.1359938202031937e+01 1 -1 0
500 1 1.9021514176950444e-01 3.8460489249529255e+00 3.4317750217652588e+01 0 3 0
410 1 3.0828346530297979e+00 1.3802822503676593e+00 3.1029902619913852e+01 -1 1 0
323 1 5.9859201006978757e-01 2.1291650886602671e+00 3.2812034791478766e+01 -1 1 0
384 2 4.2090620181023475e+00 2.6695665412068958e+00 3.1676269037220095e+01 2 -2 0
282 2 2.4393659167686970e+00 6.6200586502996828e-01 3.0768783896571410e+01 0 2 0
452 1 1.6651307082055389e+00 4.3969684200985508e+00 3.2009424966686211e+01 0 -3 0
383 1 3.7351299890296255e+00 3.5398901274837788e+00 3.1328559097813631e+01 2 -2 0
239 1 6.0065439752392811e+00 2.6821767203105238e+00 3.4362659352987663e+01 -3 7 0
200 1 6.8939567591499857e+00 3.5262497160903097e+00 3.2349438564267039e+01 0 2 0
201 2 6.8059847509207305e+00 2.8210370023946938e+00 3.1618218268280909e+01 0 2 0
194 1 6.2219967461712775e+00 1.8041066989465371e-01 3.0516177029387308e+01 2 0 0
329 1 3.6642109734666901e+00 3.7091868265041374e+00 3.5459414336030825e+01 -1 5 0
305 1 2.2395846662002690e+00 1.0968785666928320e+00 3.5258950080027844e+01 2 1 0
472 1 5.4030900775693338e+00 2.7273443779589024e+00 3.8166788546192244e+01 -2 2 0
473 1 5.7058262552210932e+00 4.0767732990004166e+00 3.7379751276375458e+01 -2 2 0
157 1 3.3228163017061894e+00 7.0431733852345546e-01 3.7198063202249138e+01 1 0 0
330 2 2.8918864548899155e+00 4.1813063100535706e+00 3.5833919090874502e+01 -1 5 0
257 1 8.0523881852751877e-01 2.7625017346798182e+00 3.8551675703953521e+01 1 0 0
288 2 5.1318607409427655e+00 3.6901729725218666e+00 3.8091677328540371e+01 1 0 0
258 2 3.4011676470325386e-01 3.6205688344329578e+00 3.8307246017045017e+01 1 0 0
306 2 2.5452700835805189e+00 3.0254356470514060e-01 3.5803555664097587e+01 2 1 0
256 1 3.0149638113695025e+00 1.7553426016712772e+00 3.8390575015986798e+01 1 0 0
438 2 3.5483077328520829e+00 9.6531255952667916e-01 3.8146075026555167e+01 -1 4 0
310 1 6.9699572157492939e+00 1.0411126492409672e+00 3.8580492671283714e+01 0 1 0
170 1 2.7880578801608022e+00 4.5749753875403556e+00 3.7664028320314642e+01 1 -1 0
77 2 1.0014794566520548e+00 1.3986715591280894e+00 3.9813795186255795e+01 1 0 -1
125 2 5.6299809298375481e+00 1.5329190088421467e+00 3.9758333543597900e+01 1 0 -1
126 2 2.9102318054185967e+00 3.1328714963026196e+00 3.9815877099615399e+01 1 0 -1
103 3 1.9273311196422482e+00 7.0571785545990888e+00 4.2392228313853941e+00 1 -1 0
105 2 5.1236666123395667e+00 8.4123204545565695e+00 4.5321345926020706e+00 1 -1 0
59 2 9.1544301268330919e-01 6.1694960345550296e+00 3.0550598530592223e+00 1 -1 0
1 3 6.4512474198357781e+00 6.8556522626236855e+00 1.5986825293956353e+00 0 -1 0
57 2 5.6371844440929197e-01 8.5020127107899359e+00 4.3808588993566202e+00 1 -1 0
51 2 4.9825394997794636e-01 8.2858987107946049e+00 1.4404811001919107e+00 1 -1 0
100 2 3.2575480818413278e+00 5.4774510000313743e+00 1.3949037347359361e+00 1 -1 0
106 2 3.2767183163884099e+00 5.6124255879998781e+00 4.6196829469839660e+00 1 -1 0
97 3 2.0312862588488980e+00 7.1927054901526617e+00 1.2249763876635671e+00 1 -1 0
99 2 5.1832349152815977e+00 8.4402941464159476e+00 1.4092637864231499e+00 1 -1 0
108 2 2.8426208955613586e+00 7.9259153857467810e+00 2.8039055717489414e+00 1 -1 0
107 2 5.5739081364938077e+00 6.1179624204432308e+00 3.0751715544517295e+00 1 -1 0
7 3 6.6263850264756954e+00 7.1170544217888549e+00 4.5769471011036797e+00 0 -1 0
122 3 4.3980592481708056e+00 9.2901047500671652e+00 9.8150897547592986e-02 1 -1 0
101 2 5.5814009265454034e+00 5.8819231340604956e+00 2.3532336414362476e-03 1 -1 0
109 3 1.9479156283881320e+00 7.0606055548603841e+00 7.2291986870520972e+00 1 -1 0
13 3 6.6159761988058614e+00 6.9014153382348269e+00 7.6495271050374258e+00 0 -1 0
65 2 9.7670082961587934e-01 6.0952118039419414e+00 5.8854405638212617e+00 1 -1 0
113 2 5.6994588261554995e+00 6.0513936678569085e+00 6.0785141984302973e+00 1 -1 0
114 2 2.8587073538218792e+00 7.8642702618662765e+00 5.9754317140264561e+00 1 -1 0
120 2 2.9326237031630455e+00 7.9653071900736636e+00 8.8406694516760389e+00 1 -1 0
112 2 3.2728866479102305e+00 5.5663748576047043e+00 7.4429506563627887e+00 1 -1 0
111 2 5.1054088530521575e+00 8.3876559272586828e+00 7.4475056027375839e+00 1 -1 0
63 2 4.4375827576765986e-01 8.4184097387868686e+00 7.4172602444118096e+00 1 -1 0
119 2 5.7330041454472775e+00 6.1358235879092362e+00 9.0528045886517727e+00 1 -1 0
71 2 9.5492462523668464e-01 6.2189563711507603e+00 8.8429401960192315e+00 1 -1 0
110 3 4.3297975600381911e+00 4.8145087213841764e+00 6.0169046071992840e+00 1 -1 0
116 3 4.2120174837866777e+00 4.7043098806537946e+00 8.9297025935635368e+00 1 -1 0
385 1 5.9971601949639677e+00 5.8672263193845566e+00 1.2704660985832788e+01 1 0 0
445 1 1.6984345662066027e+00 6.0663178199066108e+00 1.2537892944394775e+01 1 -1 0
118 2 3.2567300588781922e+00 5.7132339073417322e+00 1.0324298873789784e+01 1 -1 0
69 2 6.1920982961787219e-01 8.6092967818022519e+00 1.0404414608478376e+01 1 -1 0
220 1 2.5436916754118726e+00 9.0031358426673691e+00 1.1797992042129232e+01 1 -1 0
117 2 5.2164058130126030e+00 8.3681962032853345e+00 1.0511951218225427e+01 1 -1 0
471 2 1.0782450086238462e+00 6.0614563856930621e+00 1.1739252182796060e+01 1 -1 0
115 3 1.8347772649894218e+00 7.1936633895565700e+00 1.0142908051964923e+01 1 -1 0
432 2 2.8215943606553804e+00 8.0031671824785473e+00 1.1745587509180300e+01 1 -1 0
448 1 3.4972043734349301e+00 5.5392209891059716e+00 1.1233329283955308e+01 1 -1 0
520 1 5.5959751793549977e+00 7.5983745861512917e+00 1.4748511601690147e+01 -2 -8 0
304 1 3.7406890151614127e+00 8.0311955521210301e+00 1.1190388204096559e+01 3 -3 0
19 3 6.6954208607547869e+00 6.9844661904217951e+00 1.0549869266638847e+01 0 -1 0
450 2 5.6042184970694846e+00 5.9413830942836823e+00 1.1804099893296341e+01 1 -1 0
522 2 5.2609230540612106e+00 6.6996850542851050e+00 1.4783956719817517e+01 -2 -8 0
400 1 5.5021001845823543e+00 9.1587161093921754e+00 1.1122564497946248e+01 1 -1 0
190 1 9.1974475887651230e-01 5.0944554981105217e+00 1.1504661884956208e+01 1 -1 0
513 2 2.5785666290186975e+00 4.9751411500807663e+00 1.3824865766323494e+01 2 5 0
511 1 3.4036543147753489e+00 5.4873742078196646e+00 1.3873378659149584e+01 2 5 0
279 2 4.5776227315956692e+00 7.6071583925865829e+00 1.8262878535337439e+01 -4 -2 0
466 1 3.6007806552008987e+00 7.6016928173243450e+00 1.6868144410096988e+01 -2 5 0
278 1 5.1243081496864376e+00 6.8081905020114499e+00 1.8638207835863607e+01 -4 -2 0
320 1 6.3250070833229559e+00 5.3085713289354155e+00 1.7917102772008661e+01 -4 -4 0
468 2 3.0771329297081742e+00 7.2038613363064901e+00 1.6165633842772547e+01 -2 5 0
467 1 2.4156734344230415e+00 7.8220800234806980e+00 1.5874621522556341e+01 -2 5 0
394 1 1.5327560371452628e-01 9.1945955234777639e+00 1.6389864551486543e+01 -2 2 0
361 1 1.7070989636731957e+00 5.9353788009997492e+00 1.6299059424032624e+01 -5 -4 0
363 2 8.9631962610338645e-01 5.3747887616270384e+00 1.6406661058314967e+01 -5 -4 0
149 1 3.3997483141207678e+00 7.1520410931095366e+00 1.9576649997231051e+01 -3 -8 0
277 1 5.0375190783990504e+00 8.4064638478814988e+00 1.8501897730834830e+01 -4 -2 0
321 2 6.6390322179751777e+00 5.8406341843042364e+00 1.8728067195360687e+01 -4 -4 0
283 1 6.0027334610521494e+00 5.3230294936282609e+00 1.5538813719592060e+01 6 15 0
362 1 3.5536838270698273e-01 5.8475056528338882e+00 1.7083753706554671e+01 -5 -4 0
396 2 5.5829057781128255e-01 9.0751404045364215e+00 1.5454927484433927e+01 -2 2 0
241 1 4.3383111402339987e+00 6.7667896512852712e+00 1.5153903177422972e+01 1 -9 0
395 1 1.5603762147072331e-01 8.2219634927236598e+00 1.5091441780465638e+01 -2 2 0
236 1 2.2372366629964446e-01 5.9583845662906061e+00 1.9765914011843929e+01 4 -4 0
427 1 3.2741602402695706e+00 7.2837737504250173e+00 2.3671236378666681e+01 -3 4 0
237 2 7.2022603535351992e-01 5.4143652537404705e+00 2.0490927508097425e+01 4 -4 0
408 2 6.8498992834810695e+00 6.5327346292564163e+00 2.1740486748737624e+01 2 1 0
272 1 1.3054151630433946e+00 5.6147551661189326e+00 2.3961514565256003e+01 2 -1 0
428 1 4.7616754121962597e+00 7.0644743825050975e+00 2.3011141562988087e+01 -3 4 0
148 1 2.9567854055762424e+00 8.0612443122108246e+00 2.0725645739657217e+01 -3 -8 0
273 2 1.9910443418853760e+00 6.1576789479585861e+00 2.4438262697180463e+01 2 -1 0
429 2 4.0970629332498509e+00 7.7131007180065714e+00 2.3401360285692977e+01 -3 4 0
209 1 3.4038866336901688e+00 9.1387504015588501e+00 2.2253418430714028e+01 -1 4 0
406 1 6.5944644606888456e+00 5.7137792427226080e+00 2.1246526625492976e+01 2 1 0
235 1 1.5478013493865148e+00 5.9291817825912387e+00 2.0470963820304142e+01 4 -4 0
150 2 2.9378960856494367e+00 7.1280567585349122e+00 2.0417868646988751e+01 -3 -8 0
469 1 2.5633524472237790e-01 5.0496480786435960e+00 2.2136107878165365e+01 2 0 0
308 1 6.4880099891978613e+00 9.2417540541609089e+00 2.4174314830843976e+01 -1 -9 0
195 2 1.0486347533950037e-01 4.6662406885007739e+00 2.3043961854104925e+01 2 1 0
498 2 5.9551847575519412e+00 9.2562021303605047e+00 2.9495688517841000e+01 5 3 0
349 1 1.8629574999668792e+00 7.4262308300634148e+00 2.7404249828956402e+01 1 -4 0
351 2 2.6555918193259425e+00 7.9276944881554456e+00 2.7718602514297373e+01 1 -4 0
207 2 5.9298485119249342e+00 6.4076027724167508e+00 2.6319468815385754e+01 3 3 0
245 1 3.6412716906942975e+00 8.7888292922075308e+00 2.6474998944164945e+01 5 -6 0
206 1 5.1906818130387888e+00 5.7468678195135467e+00 2.6147502622892357e+01 3 3 0
247 1 2.9226884789933401e+00 5.1681778503991191e+00 2.5422985075406487e+01 -1 15 0
198 2 2.3336474158874720e-01 7.0129143031140293e+00 2.6279919252230147e+01 -5 3 0
205 1 5.4293879083050820e+00 7.2526781295967400e+00 2.6457179515404668e+01 3 3 0
246 2 4.4965611391750455e+00 8.9681180467633759e+00 2.5961433217273328e+01 5 -6 0
350 1 3.2914498161906383e+00 7.3552531363274047e+00 2.8306417068260533e+01 1 -4 0
271 1 1.3032873042756310e+00 6.5951903272731878e+00 2.4996874704397541e+01 2 -1 0
197 1 8.9424619385844901e-03 7.9786044019712659e+00 2.6044283582816433e+01 -5 3 0
377 1 4.9242278972004216e+00 7.7367992871334046e+00 2.9638509392704695e+01 0 -5 0
211 1 4.3353265642074419e+00 8.5689348698715779e+00 2.5072245576502709e+01 4 -9 0
460 1 6.8793532354464508e+00 8.2347932684946930e+00 3.2264451921060029e+01 -1 -5 0
454 1 5.0768107333022652e+00 9.0660240355837622e+00 3.3457624661070433e+01 1 -3 0
265 1 6.0802854930920116e+00 5.8587337319486021e+00 3.3459360797673227e+01 -4 3 0
484 1 4.4367810180986700e+00 6.6784034329370225e+00 3.1729958562117552e+01 2 4 0
399 2 1.2572339535924419e+00 7.6079174125096927e+00 3.2634673572111680e+01 -3 -9 0
397 1 1.8658705089472090e+00 8.2865562708495943e+00 3.2289647767134575e+01 -3 -9 0
398 1 1.5379306140728775e+00 7.3352186431404700e+00 3.3570378634261367e+01 -3 -9 0
456 2 4.3270736144815318e+00 8.7563597288064177e+00 3.4019551125264002e+01 1 -3 0
486 2 4.6453529268064111e+00 6.3090000505316279e+00 3.2580148504986994e+01 2 4 0
455 1 4.4172061961635665e+00 7.8051215967067860e+00 3.3964802695281790e+01 1 -3 0
451 1 1.7698706524082497e+00 5.7642258153364150e+00 3.1359085214760071e+01 0 -3 0
376 1 3.5856743221073808e+00 8.2378908742434156e+00 3.0217699184261896e+01 0 -5 0
485 1 4.4099512119111690e+00 5.3396746884601818e+00 3.2483606963048850e+01 2 4 0
378 2 4.1293820700004416e+00 7.4008462783716524e+00 3.0096866140282270e+01 0 -5 0
462 2 6.4613247872940525e+00 9.1133428534219387e+00 3.2144431471307918e+01 -1 -5 0
453 2 2.1752182908734792e+00 4.8773827302147854e+00 3.1334893209702596e+01 0 -3 0
342 2 5.5098312462502514e+00 8.3883371021470321e+00 3.8315463161325212e+01 1 -1 0
523 1 1.7375741603380355e+00 8.4227157159734549e+00 3.8527176337251760e+01 1 -1 0
439 1 6.2308112305651298e+00 7.8676557597956496e+00 3.8742141255235950e+01 -3 4 0
171 2 2.9579109217706900e+00 5.3058439443697933e+00 3.8306411533449676e+01 1 -1 0
178 1 4.9544504735029582e+00 7.6767595003724027e+00 3.7747628239262241e+01 -3 2 0
276 2 6.4700158818816416e+00 5.2906599437647968e+00 3.6418492525338628e+01 0 -4 0
519 2 4.2359482201092984e+00 6.9869010520980082e+00 3.6680282884253941e+01 0 3 0
340 1 7.3390415326280856e-01 7.2424347183793989e+00 3.8674422281286311e+01 1 -1 0
525 2 7.8041721938418473e-01 8.1748657779386793e+00 3.8316011744546195e+01 1 -1 0
494 1 2.1691214448039977e+00 5.5428194789283278e+00 3.8845845588536619e+01 1 -1 0
517 1 3.6250142544089665e+00 6.4036234012129913e+00 3.7276618923486218e+01 0 3 0
404 1 2.2517402130740121e+00 7.4781859428836928e+00 3.5546870397141284e+01 -2 6 0
403 1 8.7538755976715232e-01 6.5312036354526164e+00 3.5428703136941749e+01 -2 6 0
158 1 6.3229989767319266e+00 5.5376644111155091e+00 3.9268174507527512e+01 1 -3 0
518 1 4.9880661140269478e+00 6.3728533199458308e+00 3.6373134547810295e+01 0 3 0
328 1 2.7963408600390927e+00 5.0704292607112071e+00 3.5401948815062561e+01 -1 5 0
457 1 6.5141779995637874e+00 8.0519374754890638e+00 3.5639448014315747e+01 -6 -2 0
274 1 6.8441147848620414e+00 5.5639892555074493e+00 3.5537286425657186e+01 0 -4 0
405 2 1.7682489163412136e+00 6.7534939421492979e+00 3.4983063998478798e+01 -2 6 0
409 1 3.2934603941638048e+00 9.2371085932523513e+00 3.5245244580887018e+01 -1 2 0
102 2 2.9963587071625679e+00 8.0120753862286840e+00 3.9812220622257229e+01 1 -1 -1
53 2 1.0529255265594544e+00 6.0374410668927450e+00 3.9846798638869615e+01 1 -1 -1
30 2 7.6082663597087237e+00 3.1545763562052169e+00 4.4167693795258495e-01 0 0 0
76 2 1.2686721967387269e+01 7.8826948276914488e-01 1.3292447842602997e+00 0 0 0
78 2 1.2185076638483570e+01 3.1638644928253967e+00 1.5448182934559349e-01 0 0 0
34 2 8.0191623859707342e+00 8.8109275405729892e-01 4.4735507613124632e+00 0 0 0
36 2 7.4648362457164588e+00 3.2894608514429309e+00 3.0924429387060508e+00 0 0 0
79 3 1.1293931054280257e+01 2.3436014819006177e+00 4.4996400974349653e+00 0 0 0
73 3 1.1003633673691931e+01 2.3490289185796787e+00 1.4368046781727735e+00 0 0 0
33 2 9.9341459755008845e+00 3.8635351599221246e+00 4.3991432145378440e+00 0 0 0
27 2 9.8800688987611931e+00 3.7042308489992388e+00 1.5109561882435205e+00 0 0 0
84 2 1.2142902967440458e+01 3.1531048974565214e+00 3.0978452771061935e+00 0 0 0
82 2 1.2688561339554379e+01 7.8371374990000731e-01 4.4007568750389705e+00 0 0 0
35 2 1.0250053700711712e+01 1.3388404944919177e+00 2.8701688457900816e+00 0 0 0
28 2 7.8884271513493447e+00 7.7746138851389812e-01 1.5496918735626868e+00 0 0 0
80 3 1.3597029341196526e+01 8.5069773310769883e-02 2.8099455558543522e+00 0 0 0
56 3 1.3451676362992721e+01 4.5342034871884973e+00 3.0890828394267227e+00 0 -1 0
92 3 1.3648969429980697e+01 1.5007048228464165e-01 9.1025999832196138e+00 0 0 0
47 2 1.0258770310281186e+01 1.4324058895131662e+00 8.9543564604896186e+00 0 0 0
44 3 8.8198727298330937e+00 2.8178474270097564e-02 9.0087351932954185e+00 0 0 0
48 2 7.5052260617425013e+00 3.1937060920488545e+00 8.8323829456813048e+00 0 0 0
90 2 1.2256580179262674e+01 3.0604762623989910e+00 5.9799304882139293e+00 0 0 0
96 2 1.2175553553427100e+01 3.2400807720001592e+00 8.9471242672737556e+00 0 0 0
41 2 1.0320147921238515e+01 1.4134777690624527e+00 6.0024394586002252e+00 0 0 0
39 2 9.9432200708158067e+00 3.7988442164282299e+00 7.3575362203031345e+00 0 0 0
42 2 7.5419545211240422e+00 3.2094886412667996e+00 6.0139737078948050e+00 0 0 0
85 3 1.1293540261672558e+01 2.1701303544554311e+00 7.3935457748525071e+00 0 0 0
88 2 1.2616323766826778e+01 8.6436788391460784e-01 7.3273066633951860e+00 0 0 0
40 2 8.0434053705700261e+00 8.4755322852779946e-01 7.4675502746919626e+00 0 0 0
86 3 1.3682827870863749e+01 7.9838240329124233e-03 5.9328374708465512e+00 0 0 0
232 1 1.0944451370126423e+01 1.1292466729752224e+00 1.4550638588096529e+01 -5 -7 0
446 1 9.9612758258341465e+00 3.8005689776299484e-01 1.1485363197586947e+01 0 0 0
45 2 9.9428620464586857e+00 3.7659662837160268e+00 1.0366540476981758e+01 0 0 0
46 2 7.9031515375185810e+00 8.5290904465250128e-01 1.0306388496472195e+01 0 0 0
213 2 1.0236006906946967e+01 1.2581503570856756e+00 1.1963033195068510e+01 0 0 0
470 1 1.2543696703019073e+01 3.0779803506665533e+00 1.3022006035035879e+01 0 -1 0
188 1 7.7787286103471294e+00 4.3450104125904279e+00 1.1535676155269471e+01 1 5 0
219 2 1.2127807026290229e+01 3.3587336859306194e+00 1.2192175371612537e+01 0 -2 0
91 3 1.1203324322517316e+01 2.3584110165468837e+00 1.0291111074908828e+01 0 0 0
440 1 7.5502878585830553e+00 2.6969625006311522e+00 1.3588736163188722e+01 -1 -3 0
224 1 1.0114811402465810e+01 2.7949128753342585e+00 1.3741761392428213e+01 -2 -1 0
94 2 1.2564513534170366e+01 1.0018129400658133e+00 1.0318173782605951e+01 0 0 0
204 2 7.5306367224552320e+00 3.4196581778759523e+00 1.1801781898875859e+01 1 6 0
217 1 1.2779598121651421e+01 3.9849326220118244e+00 1.1869440806463597e+01 0 -2 0
431 1 9.3494464457401545e+00 1.7193645757810989e+00 1.1889577072208160e+01 1 0 0
441 2 7.5850836413236111e+00 2.7334168617947299e+00 1.4580400198325568e+01 -1 -3 0
233 1 1.1437320894893727e+01 4.5879897532591585e-02 1.3654697153381926e+01 -5 -7 0
225 2 1.0330803932242164e+01 2.7457851792544181e+00 1.4701217049256904e+01 -2 -1 0
234 2 1.1151069629677044e+01 1.3281868280231973e-01 1.4576134833780991e+01 -5 -7 0
212 1 1.3728434281710314e+01 1.2627261547461093e+00 1.1556104137285981e+01 0 0 0
228 2 1.3926453787715825e+01 2.6117824541052359e+00 1.4559676722719805e+01 -3 4 0
226 1 1.3775976320290756e+01 1.6294825962248296e+00 1.4806745302236745e+01 -3 4 0
270 2 1.2324151215659304e+01 2.3822148867215316e+00 1.8178427171996464e+01 -5 5 0
269 1 1.1960378999211748e+01 2.0023791176390300e+00 1.9044985322182324e+01 -5 5 0
318 2 8.6218747698737168e+00 2.8133743080559857e+00 1.8480082983497365e+01 5 2 0
268 1 1.1922045162301071e+01 3.2081801035089761e+00 1.8014357232558723e+01 -5 5 0
317 1 9.2371590324851525e+00 3.5787588811299802e+00 1.8277537519675221e+01 5 2 0
316 1 8.1042493087848442e+00 3.1971064235430138e+00 1.9236954518561969e+01 5 2 0
493 1 1.1468647810634184e+01 5.0078061662354367e-01 1.7297063778735502e+01 2 7 0
464 1 1.0430556441530719e+01 2.4281889131451248e-01 1.9595654366714555e+01 -3 7 0
250 1 7.3522122672786523e+00 1.9850149031970921e+00 1.7292608479702171e+01 0 1 0
370 1 1.1532450741353086e+01 4.2189288001749023e+00 1.5602254958448073e+01 3 1 0
223 1 9.3697888956536133e+00 2.7663102280415490e+00 1.5027811905204496e+01 -2 -1 0
231 2 1.2321593387617765e+01 1.6901848030129680e+00 2.1057930829213550e+01 -2 18 0
309 2 7.4178541233987252e+00 9.8541022975776549e-02 2.3862725500905348e+01 -1 -8 0
230 1 1.1834756494967230e+01 9.9481232232480910e-01 2.1539843113218410e+01 -2 18 0
333 2 1.1008708784200591e+01 4.5794067825726357e+00 2.2698383542809356e+01 2 2 0
307 1 7.3501753808581318e+00 2.7252616339185221e-01 2.2889872413133741e+01 -1 -8 0
489 2 7.2454593477347604e+00 1.1272249589850014e-01 2.1040067931627732e+01 -4 3 0
229 1 1.1909342439838388e+01 2.5323529594637653e+00 2.1239647582699646e+01 -2 18 0
332 1 1.0334445344567266e+01 3.9625765222429470e+00 2.3059418860108448e+01 2 2 0
172 1 9.1127569586353392e+00 2.1619284692095473e+00 2.3650768149562676e+01 -3 -1 0
174 2 9.3253994051923552e+00 2.9129641317453454e+00 2.4188944515010622e+01 -3 -1 0
401 1 1.3114453118241247e+01 4.6503801545137504e+00 2.3119630200190045e+01 1 1 0
463 1 9.1526019647075056e+00 2.4040630494083085e-01 2.0469489792253022e+01 -3 7 0
286 1 7.0705023293422915e+00 4.5780734207988703e+00 2.4422228451904957e+01 0 2 0
292 1 7.6453950461658629e+00 1.7250663049850312e+00 2.7236081682871621e+01 1 -3 0
477 2 1.0720065533436486e+01 1.8594141736363845e+00 2.6043152326830093e+01 2 -2 0
367 1 1.0215184585448000e+01 3.9730772216348829e+00 2.8984771184683442e+01 7 7 0
365 1 7.8897260498320003e+00 4.0424385405107834e+00 2.7177128821178499e+01 4 -2 0
325 1 1.2984064143472443e+01 1.4560565511200023e+00 2.5469098601296913e+01 -1 -7 0
475 1 1.0540846017447519e+01 2.1526649003318838e+00 2.6929903953340993e+01 2 -2 0
327 2 1.3743100053499701e+01 8.3841456467105480e-01 2.5744780054361037e+01 -1 -7 0
368 1 1.1559684435332434e+01 3.1036889924597593e+00 2.8944693578464573e+01 7 7 0
369 2 1.0845425325975345e+01 3.5291816630398678e+00 2.8363564925635529e+01 7 7 0
426 2 8.3531134936201212e+00 3.3507466437690553e-01 2.8045396186346832e+01 -3 8 0
294 2 7.3627609271020455e+00 2.5053627946452792e+00 2.6642904179941148e+01 1 -3 0
476 1 1.0507907820324359e+01 9.0376288968323459e-01 2.6084147852808751e+01 2 -2 0
344 1 1.3940025546920380e+01 1.8280115313288219e+00 2.8961066216263141e+01 -3 2 0
412 1 9.6863479300242883e+00 1.1035942880794103e-01 2.9130732285281777e+01 -8 8 0
299 1 1.2340263886470636e+01 1.0090674590133115e+00 2.9801844268204704e+01 -1 -2 0
173 1 9.9088953260862151e+00 2.6385703087188443e+00 2.4949378683225060e+01 -3 -1 0
298 1 1.3217130460368184e+01 1.9099218307911756e+00 3.0847402746872131e+01 -1 -2 0
176 1 8.5707008282352675e+00 1.5013535965989808e+00 3.3542953612648297e+01 -5 11 0
159 2 1.0004196213207468e+01 1.4060115118827445e+00 3.2226705588663080e+01 0 0 0
177 2 7.7469434262362205e+00 1.3866539852436479e+00 3.4093664127493355e+01 -5 11 0
509 1 1.0060698489566013e+01 3.1182072781122971e+00 3.2493411122470334e+01 2 1 0