LAMMPS data file via write_data, version 5 Jun 2019, timestep = 1020000

564 atoms
3 atom types

0.0000000000000000e+00 1.3161440743621954e+01 xlo xhi
0.0000000000000000e+00 8.9076089999999990e+00 ylo yhi
0.0000000000000000e+00 4.8394900000000000e+01 zlo zhi

Masses

1 1
2 16
3 47.86

Atoms # atomic

131 2 1.3845613926436207e+00 3.1777919708446539e-01 3.2135972603101584e+00 0 0 0
161 2 1.2105320958249235e+00 3.3543302058694477e+00 3.1233389565184737e+00 0 0 0
158 3 4.7545076601692440e+00 3.1436337732866404e+00 4.4741827001150973e+00 0 0 0
123 2 2.5180232961314211e+00 1.8177862327470875e+00 1.1019714721348441e+00 0 0 0
129 2 5.9893105330644785e+00 1.7213543555838000e+00 4.3895789763907143e+00 0 0 0
162 2 1.3338690250438527e+00 3.2551588744249553e+00 5.7026935143640625e+00 0 0 0
156 2 4.6414643139512224e+00 3.2619585388775363e+00 2.3688824728878402e+00 0 0 0
121 3 4.5445103753153511e+00 1.9048365962486795e+00 1.0825389419652172e+00 0 0 0
130 2 3.4041083959435063e+00 1.8888809245268507e+00 4.4432862032998646e+00 0 0 0
152 3 1.1587070448310199e+00 3.2936478274198167e+00 1.3286582138517078e+00 0 0 0
127 3 1.2848963895802659e+00 1.6831753998544396e+00 4.5011222298449312e+00 0 0 0
122 3 1.3245586746771643e+00 2.5123007047354079e-01 1.1441229517138340e+00 0 0 0
128 3 4.5119570580128254e+00 3.5664366897179400e-01 4.3498127601969365e+00 0 0 0
126 2 4.5305061223748222e+00 3.2813138155680077e-01 2.5056385154031360e+00 0 0 0
132 2 1.3520832349728009e+00 3.0150793350194161e-01 5.7676177222245277e+00 0 0 0
124 2 6.3058611478014101e-02 1.6027082714449004e+00 1.0905962500889788e+00 0 0 0
34 2 6.5751757596412608e+00 1.9435947392105781e+00 8.6460227327425454e-01 -1 0 0
135 2 2.6199905512711505e+00 1.8168708193810064e+00 7.7469829292220593e+00 0 0 0
142 2 3.3729814355654359e+00 1.8616556514874323e+00 1.1038600815977194e+01 0 0 0
141 2 6.0303418765642185e+00 1.7390046922071147e+00 1.1072571881180352e+01 0 0 0
170 3 4.7630553409115333e+00 3.2168623364727509e+00 1.0992356656959995e+01 0 0 0
133 3 4.6299299224038739e+00 1.8420415014968312e+00 7.6280575654798239e+00 0 0 0
167 2 4.6579717560196450e+00 3.2318388596249972e+00 6.3626845652204507e+00 0 0 0
173 2 1.4333907286213909e+00 3.3738014219958368e+00 9.8859011334574998e+00 0 0 0
168 2 4.7289793412129422e+00 3.1677538702720827e+00 9.0632452391759113e+00 0 0 0
164 3 1.2660746110100660e+00 3.4135385700157999e+00 7.7349138353757674e+00 0 0 0
137 2 4.6576600098311181e+00 3.5750916113481168e-01 6.4707786941300158e+00 0 0 0
139 3 1.4255611065659639e+00 1.7935831676681686e+00 1.1061743281862482e+01 0 0 0
143 2 1.3737962728286299e+00 3.1092664973814188e-01 9.7451490104526233e+00 0 0 0
140 3 4.7534374240161918e+00 2.3691775660024350e-01 1.0934792874067186e+01 0 0 0
134 3 1.4007181823452548e+00 4.4715275098205798e-01 7.9560498624355747e+00 0 0 0
138 2 4.8590829400263251e+00 3.6328936961092290e-01 9.0308881287220366e+00 0 0 0
136 2 1.0414733994985886e-01 1.8514271338737205e+00 7.7774421693566813e+00 0 0 0
451 1 1.6627666499605935e+00 1.6401023264076646e+00 1.6896593084690224e+01 -1 6 0
179 2 4.7679325129991987e+00 3.1663179064766305e+00 1.3014989918890418e+01 0 0 0
144 2 1.4101713185103644e+00 3.3507453281906735e-01 1.2394667549581801e+01 0 0 0
145 3 4.6379247361604934e+00 1.7264173919146613e+00 1.4250841190171242e+01 0 0 0
174 2 1.2297584318716597e+00 3.1849351441737381e+00 1.2435388383696617e+01 0 0 0
147 2 2.5536665612124967e+00 1.8858183574095344e+00 1.4345343743625534e+01 0 0 0
308 1 8.1278077143869876e-01 3.3922840039213096e+00 1.7590074986408286e+01 5 -2 0
237 2 1.5803224329548811e+00 3.1103879760620492e+00 1.7029629570554153e+01 0 -5 0
180 2 4.5858704966091057e+00 3.1407241791758334e+00 1.5596858986849597e+01 0 0 0
176 3 1.3408820771436720e+00 3.3948017598165352e+00 1.4244538075528631e+01 0 0 0
554 1 2.3792380256553671e+00 3.5153458768457151e+00 1.7479995184904869e+01 1 10 0
442 1 4.0132156529888556e+00 1.5295453644338133e-01 1.6428506965876270e+01 0 10 0
146 3 1.2524679247217878e+00 4.7593276328210571e-01 1.4350922897983875e+01 0 0 0
149 2 4.6246264017547372e+00 2.5524395194357735e-01 1.3175850012386285e+01 0 0 0
150 2 4.7212607646678233e+00 2.5231971579274637e-01 1.5808251570493692e+01 0 0 0
413 1 5.4132329525959770e+00 2.9305964809586440e+00 1.7067985296401250e+01 7 4 0
414 2 5.8897039222454595e+00 2.5099941779983816e+00 1.7823788103572323e+01 7 4 0
555 2 1.7804436779353736e+00 6.8338555301730153e-01 1.6566627860673744e+01 1 10 0
371 1 9.4148942926409918e-01 3.2598633079936751e-01 1.7023218593121292e+01 0 -9 0
367 1 5.7147823446574799e+00 6.7809434090582277e-01 2.3033215240155808e+01 5 -3 0
234 2 2.2463213447190906e+00 1.7260660747443961e+00 1.9716093760090882e+01 3 2 0
229 1 5.1689701839460858e+00 2.5366147966987673e-01 2.0185862875145958e+01 -1 -2 0
328 1 3.7565442180817659e+00 1.7694934620185336e+00 2.0017260141420522e+01 3 4 0
221 1 3.0147801565785510e+00 3.4088393724747235e+00 2.2992685796938716e+01 5 -6 0
232 1 1.8741002321997162e+00 7.6513579893191364e-01 1.9781628587889919e+01 3 2 0
265 1 6.2463050060916219e+00 3.1369377137205290e+00 2.2344713649017592e+01 0 -3 0
384 2 1.8172917210346087e+00 3.9126832114736700e+00 2.0868600988886190e+01 0 -6 0
399 2 5.8371514248067387e+00 2.3558982378810822e+00 2.2646832993130591e+01 2 -1 0
481 1 4.9570674126912877e+00 2.5502467318464821e+00 2.3032728308178047e+01 2 -4 0
330 2 4.7835614169272462e+00 1.6661399099917367e+00 2.0106361946239559e+01 3 4 0
412 1 5.2299477556431073e+00 2.3199565166308940e+00 1.8546082807982945e+01 7 4 0
233 1 1.7051411290788088e+00 2.4145241309429131e+00 2.0279881225671371e+01 3 2 0
329 1 5.1195598614514486e+00 2.0199344526391063e+00 2.0919705394699772e+01 3 4 0
222 2 3.6305302875668461e+00 3.2868827060031478e+00 2.3719396183280701e+01 5 -6 0
382 1 8.8704223322246856e-01 4.1414825557279453e+00 2.1113250397647015e+01 0 -6 0
274 1 6.3113479063727131e-03 2.3627076343871352e+00 2.3434043439084650e+01 2 9 0
304 1 2.0529221823511423e+00 4.3396682712264996e+00 2.0013735256682391e+01 2 1 0
534 2 5.3056921181126269e+00 2.5222349734387777e+00 2.6418496610565505e+01 0 8 0
457 1 4.9770478874260986e+00 1.5322029185823030e+00 2.9805969602846996e+01 2 5 0
374 1 1.8094908461539034e+00 1.4050678082754375e+00 2.7836608776731740e+01 1 0 0
239 1 5.2747187968169662e+00 2.4314224224867398e+00 2.7392876318952290e+01 2 5 0
305 1 6.3019589163756446e+00 2.6692151423822472e+00 2.6130136933730608e+01 1 5 0
242 1 3.7012959552188058e+00 1.3014980290157274e+00 2.6342747262133059e+01 -1 0 0
218 1 1.0423481553630531e-01 2.5896353323232959e+00 2.8599260066011272e+01 3 -6 0
281 1 3.3539604587691974e-01 8.6288030821038830e-01 2.4826028127173178e+01 2 3 0
469 1 4.2121565316083549e+00 4.3631934820264933e+00 2.6347203015707880e+01 0 -1 0
490 1 5.6012771920240045e-01 7.5675885119896602e-01 2.8620066815706988e+01 5 6 0
459 2 5.6487800954198697e+00 1.9381657788512383e+00 2.9141326078017990e+01 2 5 0
396 2 1.3210098878247616e+00 1.4122468416742051e+00 2.8674110836902759e+01 7 7 0
226 1 3.3955608012098254e-01 2.9108876760961420e+00 2.4942002618629420e+01 2 2 0
537 2 3.4757173815812079e+00 3.7602620597576980e-01 2.6448563151235842e+01 2 0 0
458 1 6.3564152428756087e+00 2.4647749326707089e+00 2.9556505084264465e+01 2 5 0
276 2 7.1938068359898943e-01 2.3850715752660006e+00 2.4219138539471224e+01 2 9 0
220 1 3.1193585916011313e+00 2.7770664875415654e+00 2.4360500539666408e+01 5 -6 0
331 1 2.0333498207897245e+00 3.5087058448383988e+00 3.0066006361432123e+01 -3 0 0
405 2 5.5573831120131401e-01 2.0731299255416671e+00 3.6177581788624735e+01 0 6 0
192 2 1.5712503815134617e+00 2.3270511943543206e+00 3.2927803844014484e+01 -2 -2 0
190 1 2.0463827777235339e+00 2.6348392221294872e+00 3.3708317719722302e+01 -2 -2 0
456 2 3.8370394349914902e+00 2.6418292698847390e+00 3.4664491833919676e+01 6 -3 0
410 1 8.0483169835755208e-02 2.4118777864743506e+00 3.2684508359598176e+01 8 1 0
236 1 4.2122418036644342e+00 1.9789876837182745e+00 3.5274512715419910e+01 1 0 0
518 1 5.5777634302961454e+00 2.6527462358456084e+00 3.4017986423607425e+01 -3 12 0
191 1 1.7994187443613285e+00 2.9387896973598662e+00 3.2216638725857223e+01 -2 -2 0
230 1 3.6763450521009897e+00 3.3872076620256362e+00 3.5223856193386766e+01 0 -1 0
510 2 4.2172987992695550e+00 3.4648201405194595e-01 3.0924136173521472e+01 -2 -1 0
202 1 7.0876048087517962e-01 3.6796924218746678e+00 3.5621137514494841e+01 0 0 0
439 1 1.1618870396831120e+00 1.2912018972765531e+00 3.6087997622886867e+01 2 3 0
426 2 6.3666812099350443e+00 2.9187345778803677e+00 3.3517429946452154e+01 -2 5 0
333 2 2.2868079842159474e+00 4.1557770362098987e+00 3.0704337083055986e+01 -3 0 0
527 1 1.5330517052792301e+00 1.7177429377381873e-02 3.3080484750900645e+01 3 6 0
497 1 4.1131162484831965e+00 6.4868680864810790e-01 3.1833391356585619e+01 4 -1 0
530 1 5.3066666323540215e+00 4.1604549308119685e+00 3.1996099835781163e+01 0 -1 0
332 1 3.2383669907516421e+00 4.1505800768466967e+00 3.0987080510985926e+01 -3 0 0
420 2 4.4821163801307033e+00 6.6841019570759108e-02 3.3887597010827392e+01 3 0 0
500 1 6.0062522455216474e+00 1.2292678498287317e+00 3.7378787916329159e+01 1 9 0
183 2 3.8466634759813010e+00 2.3467955534790832e+00 4.0420479576416348e+01 0 -1 0
501 2 5.0553429856364245e+00 1.0522331416030766e+00 3.7273658159575611e+01 1 9 0
291 2 4.1853613751524232e-01 2.9471341930781086e-02 3.9246927784579952e+01 4 -2 0
454 1 2.4759965646410382e+00 2.9082315866005115e+00 3.8714135431754443e+01 4 -4 0
476 1 1.4138145742843893e+00 3.0044973409361697e+00 3.9966971399656060e+01 3 6 0
390 2 1.5756772887990029e+00 2.6224441880907055e+00 3.9055473324222341e+01 -1 -6 0
279 2 1.1477022130877705e+00 2.9544999802746736e+00 4.1940935281719376e+01 1 -9 0
181 1 3.6721431653080057e+00 1.3737544501396504e+00 4.0207022985149152e+01 0 -1 0
480 2 3.9383587816512944e+00 3.7425838204621744e+00 3.7578518750511819e+01 6 7 0
235 1 4.7390951360908096e+00 2.3550380935693185e+00 4.0698184239145412e+01 -1 -5 0
478 1 4.3489904182971584e+00 2.8860234928349229e+00 3.7349995596158536e+01 6 7 0
499 1 4.8390115996409913e+00 5.5353060263896214e-01 3.8046892024832459e+01 1 9 0
404 1 3.9808523668076345e-01 2.2032441563679406e+00 3.7105725541986359e+01 0 6 0
358 1 4.2415904080042512e+00 3.9125333336146380e+00 3.8462864797563796e+01 6 9 0
290 1 8.5185024519458752e-01 9.5729055964492005e-01 3.9359621976108983e+01 4 -2 0
277 1 2.7244412721035466e-01 2.8081154113334619e+00 4.2315643799248605e+01 1 -9 0
427 1 5.4301376005987692e+00 5.7017341747684788e-02 4.2203853344151952e+01 1 0 0
263 1 4.2872015927295193e+00 2.7597175216224032e+00 4.6662838570818877e+01 -2 0 0
310 1 8.9784184438619885e-01 3.1909958660187003e+00 4.6845921490444439e+01 4 -5 0
496 1 2.5237910821506935e+00 3.0604848846539223e+00 4.6714230495540534e+01 4 -1 0
225 2 5.8666327103923726e+00 3.4355466025231762e-01 4.5206999259283137e+01 -4 0 0
224 1 5.2806905630966785e+00 9.6826885952284913e-01 4.5640571981062301e+01 -4 0 0
324 2 1.7406493323230288e+00 3.4505482276711770e+00 4.7249275557812425e+01 -3 -5 0
471 2 5.5688268169616730e+00 4.0182391981791277e+00 4.3926481409393993e+01 -1 -2 0
460 1 4.3606759697526449e+00 2.9310555554331761e+00 4.5067514209503059e+01 0 4 0
293 1 1.1090575695292346e+00 3.4922498618903502e-01 4.6249037172229123e+01 0 -5 0
429 2 5.2920928012133412e+00 8.7419825186116684e-01 4.2704885157913260e+01 1 1 0
477 2 4.0230000738290412e+00 2.3130096894195238e+00 4.5806127089943665e+01 4 2 0
542 1 1.7011864850801373e+00 1.0222274774094697e+00 4.4064679748619191e+01 1 1 0
393 2 1.7452624678774079e-01 1.0661157322700998e+00 4.4987108535767248e+01 2 5 0
506 1 3.2314139336149155e+00 1.0733225835706353e+00 4.3464335719596910e+01 0 0 0
543 2 2.2924013765039186e+00 1.0856441624729731e+00 4.3245312166331466e+01 1 1 0
268 1 3.8682981348978362e+00 4.9494617011138893e-02 4.7569194096222944e+01 4 -4 0
223 1 5.6347399021699109e+00 4.5949846809715456e-01 4.4267053252715762e+01 -4 0 0
437 1 6.0427221675393987e+00 3.7300230172833322e+00 4.3156026428487493e+01 1 -4 0
513 2 1.6265005944721889e+00 5.3391780896887224e-02 4.7061167884295585e+01 -1 3 0
125 2 4.4751760548627368e+00 2.3284640373361662e-01 4.8255736474479818e+01 0 0 -1
155 2 4.4114073129668583e+00 3.1928450389229304e+00 4.8306759108757312e+01 0 0 -1
182 1 6.1340814687379162e+00 1.3580875836788902e+00 4.2659083751837066e+01 0 -2 0
278 1 1.8241503679001432e+00 2.4214881338756324e+00 4.2363432801481572e+01 1 -9 0
98 3 4.7259228920582732e+00 6.1147931918266583e+00 4.3745038846430937e+00 0 -1 0
157 3 1.4501194901472556e+00 4.7988813400439350e+00 4.4853920187009839e+00 0 0 0
97 3 1.5128377472630046e+00 7.7819137159385798e+00 4.5380469176813953e+00 0 -1 0
91 3 4.6546240125289975e+00 7.6884361102898016e+00 1.1221042917801973e+00 0 -1 0
96 2 4.8019445329100661e+00 6.2585561375555212e+00 2.4325256304768859e+00 0 -1 0
99 2 5.8914065505412756e+00 7.6586884020268693e+00 4.3683386969472418e+00 0 -1 0
153 2 2.5426974487287137e+00 4.7560413293407633e+00 1.1562290556981401e+00 0 0 0
102 2 1.4233686100906739e+00 6.1739516093001381e+00 5.7592602261184389e+00 0 -1 0
92 3 1.4174503793413351e+00 6.2855791881407930e+00 1.2732545473897539e+00 0 -1 0
101 2 1.3107126435968743e+00 6.2167408499084900e+00 3.2384316901789245e+00 0 -1 0
93 2 2.6882888692802291e+00 7.6026178529084421e+00 1.0761831384268961e+00 0 -1 0
100 2 3.3258253075573032e+00 7.8225675767101528e+00 4.3847259427934020e+00 0 -1 0
151 3 4.6529905754864096e+00 4.7369503193762243e+00 1.1155192708665191e+00 0 0 0
160 2 3.4405633306045091e+00 4.8213328246976248e+00 4.3989980832266875e+00 0 0 0
159 2 5.9960725845329002e+00 4.7912700274507456e+00 4.4782084586036346e+00 0 0 0
94 2 9.9598546866730503e-02 7.6891557365708616e+00 1.0728014387001474e+00 0 -1 0
154 2 4.0063405996950748e-02 4.8305497858906579e+00 8.5425883801091351e-01 0 0 0
165 2 2.6823039731893359e+00 4.7658472175972939e+00 7.8150158232420726e+00 0 0 0
105 2 2.7633586814760069e+00 7.7943521460789738e+00 7.7473663567250179e+00 0 -1 0
112 2 3.3767937629861606e+00 7.6201076881656311e+00 1.0901308723693921e+01 0 -1 0
110 3 4.6301719600122322e+00 6.1214682565727712e+00 1.1281438425998557e+01 0 -1 0
107 2 4.7765961715021499e+00 6.2138697970305197e+00 6.4937033846355803e+00 0 -1 0
111 2 5.9528965650309074e+00 7.6939053872270513e+00 1.0989486538918808e+01 0 -1 0
113 2 1.4450500364580225e+00 6.1933031065204780e+00 9.8130131837154817e+00 0 -1 0
104 3 1.3462610700363518e+00 6.3670171106219948e+00 7.7740562289321868e+00 0 -1 0
103 3 4.7101578970446800e+00 7.7206929760448215e+00 7.7931574752229400e+00 0 -1 0
108 2 4.5933350132586970e+00 6.2565757063193397e+00 9.0194950197381321e+00 0 -1 0
109 3 1.5046604026992643e+00 7.6625843705970036e+00 1.1121764799667078e+01 0 -1 0
171 2 5.9282210610085686e+00 4.7359097019608347e+00 1.1093525010775133e+01 0 0 0
169 3 1.4343757627356633e+00 4.7401177275198689e+00 1.1026294978242868e+01 0 0 0
172 2 3.3752445123758221e+00 4.7029812055322040e+00 1.1191464661143263e+01 0 0 0
163 3 4.6350606970497390e+00 4.8168793964382539e+00 7.8293788665935926e+00 0 0 0
106 2 1.0269078805326776e-01 7.7891420036938577e+00 7.8232369029757187e+00 0 -1 0
166 2 1.4478653571014410e-01 4.8581923000048297e+00 7.8208465793588102e+00 0 0 0
452 1 2.0562502798823235e+00 6.0468373648924647e+00 1.7017252965130066e+01 -1 5 0
114 2 1.5613952434330294e+00 6.2798510856944034e+00 1.2404317653080751e+01 0 -1 0
119 2 4.6417263993865134e+00 6.2965585475442056e+00 1.3049810599430685e+01 0 -1 0
120 2 4.6947684339869573e+00 6.0160247042222306e+00 1.5605460391840470e+01 0 -1 0
117 2 2.6349606242467356e+00 7.8353126914411533e+00 1.4517929124390875e+01 0 -1 0
115 3 4.7674797707595538e+00 7.5598521638512910e+00 1.4491170412015729e+01 0 -1 0
539 1 5.3883109109656875e+00 5.9775560749049319e+00 1.7300910180203637e+01 10 -5 0
453 2 1.1924246713884832e+00 6.3812816130143064e+00 1.6555654566004911e+01 -1 5 0
116 3 1.4190551217754748e+00 6.4388322300465850e+00 1.4333067139433437e+01 0 -1 0
175 3 4.6642777796548227e+00 4.5508225112389988e+00 1.4577078752151074e+01 0 0 0
177 2 2.6909545685598757e+00 4.6530821295824429e+00 1.4388522898744101e+01 0 0 0
118 2 1.0167989708592748e-01 7.7768297756367986e+00 1.4498362902978370e+01 0 -1 0
178 2 1.9295095497761885e-01 4.8281278695852468e+00 1.4436628411714960e+01 0 0 0
418 1 4.0691486689508038e-01 5.8427879314710731e+00 1.6851002484880649e+01 2 0 0
252 2 5.4842702438540991e+00 8.1542755238269553e+00 2.0332416095866257e+01 1 -3 0
538 1 6.3175378252821872e+00 5.5279406329911307e+00 1.8528495806104914e+01 10 -5 0
186 2 2.1863959952381022e+00 7.7341132148178122e+00 2.0306704082611311e+01 -4 6 0
364 1 5.8816128672038461e+00 5.7188678409074116e+00 2.1914135075572879e+01 2 3 0
327 2 3.0232088085975763e+00 5.7716567400430820e+00 1.8647185709791966e+01 0 1 0
342 2 5.8728834098137943e+00 8.5884119469992406e+00 2.3125381067901102e+01 3 -8 0
523 1 2.5041288710764631e+00 7.3898279102508306e+00 2.3485280757360545e+01 4 0 0
388 1 4.2807337167777737e-01 6.3078627042576807e+00 2.2266141679566790e+01 3 -1 0
434 1 2.6078017280923964e+00 6.5535216889353052e+00 1.9083536939863080e+01 0 0 0
540 2 5.4547925262289532e+00 5.9071570150828698e+00 1.8312110303326044e+01 10 -5 0
525 2 1.6059683680319974e+00 7.4431016583694403e+00 2.3129231279315217e+01 4 0 0
184 1 1.4832510394512606e+00 7.7903964412178803e+00 2.1066512361851618e+01 -4 6 0
185 1 3.1147441036866610e+00 7.9600533739623955e+00 2.0753853343450434e+01 -4 6 0
346 1 5.3043681535003930e+00 7.7828963152211346e+00 1.9383095490014831e+01 1 2 0
280 1 1.1087710688288235e+00 7.8250862237704091e+00 2.3896614016718573e+01 4 7 0
325 1 4.0333130596275257e+00 5.8231151820710920e+00 1.8543820934871206e+01 0 1 0
488 1 5.9895541434483954e+00 8.0659928510868397e+00 2.2292582008159176e+01 4 3 0
208 1 4.5287426599991294e+00 7.7411121191812713e+00 2.4113318129100453e+01 -1 -5 0
514 1 3.1445896617049462e+00 7.1326875403436905e+00 2.8476303797363865e+01 -3 0 0
283 1 1.6168388838670238e+00 5.8233509931061471e+00 3.0131766688294313e+01 5 0 0
317 1 5.0448598665788431e+00 6.8923357056705470e+00 2.9446687471546273e+01 -2 2 0
307 1 3.8828669282290464e+00 6.2578338641842519e+00 2.7456734006388210e+01 1 -1 0
360 2 3.6266153307036979e+00 5.1815249206834570e+00 2.6372143916896011e+01 3 1 0
285 2 1.3885467599619010e+00 6.5055164209508396e+00 2.9492775685327342e+01 5 0 0
516 2 4.0515473284711376e+00 7.0364150250410162e+00 2.8111877589149735e+01 -3 0 0
472 1 3.7830791085223940e+00 5.7736893672190064e+00 2.5608066101746147e+01 1 -2 0
441 2 3.8257943752244503e+00 7.3668032645076122e+00 2.4711912044558634e+01 0 -2 0
352 1 3.8208547451881376e+00 8.8662244668692871e+00 2.7252599859894186e+01 1 6 0
406 1 1.5526541681874522e+00 6.5573838155309030e+00 2.6277761677987627e+01 -1 -2 0
431 1 3.5321807987391418e+00 8.2021956681869685e+00 2.5294158241292237e+01 -2 0 0
258 2 7.1334477456337475e-01 6.7420305391040358e+00 2.6764170362491722e+01 2 -1 0
284 1 4.6129998594047983e-01 6.8856236475074351e+00 2.9624645232113050e+01 5 0 0
256 1 9.4427518642574471e-01 6.5448603890062307e+00 2.7695181947584395e+01 2 -1 0
241 1 1.7310479620192398e-01 8.4985880020831708e+00 2.6002665458616605e+01 -2 -3 0
243 2 1.2449858130627937e-02 8.7911480208794188e+00 2.5076688010644691e+01 -2 -3 0
269 1 9.1248121817327998e-02 4.9481731815662373e+00 2.6140606896464860e+01 4 -2 0
433 1 1.5825939219254028e+00 4.8875569983248326e+00 3.5001510792920826e+01 1 -4 0
259 1 2.4311183520771737e+00 6.2139786642865742e+00 3.3308802116632428e+01 0 0 0
203 1 3.5379480075266749e+00 5.1058841483386317e+00 3.3551546886735835e+01 2 0 0
416 1 4.4369404654279423e+00 8.3311595659556037e+00 3.0858153270749490e+01 -3 -1 0
204 2 2.7983477828123089e+00 5.6655051615689400e+00 3.3960664277811901e+01 2 0 0
528 2 1.8025018079741368e+00 8.0733402962052523e+00 3.2604885983471249e+01 3 5 0
526 1 2.1674778865384559e+00 8.3821681350921864e+00 3.1727850410362258e+01 3 5 0
375 2 4.4454173593478403e+00 4.5977037736066926e+00 3.2086648932893809e+01 -3 -4 0
544 1 4.0187576289719562e+00 6.4692331089027508e+00 3.5711294900227109e+01 5 1 0
213 2 7.9881016712545783e-01 4.7103578272068303e+00 3.5478026805603349e+01 0 -4 0
373 1 4.6966046084557256e+00 5.4510384126139995e+00 3.1619845297787744e+01 -3 -4 0
271 1 2.0852742984971973e-01 7.1604607175479318e+00 3.2421018148537264e+01 5 -6 0
275 1 8.4871140208426232e-01 8.2886557015497377e+00 3.5634916425819988e+01 1 6 0
520 1 6.1615483967122096e+00 7.7668069144614238e+00 3.2858594681039271e+01 1 -3 0
318 2 5.2687281248782254e+00 6.8553092508018354e+00 3.0422385460632725e+01 -2 2 0
419 1 5.1966371202432748e+00 8.4950387043805176e+00 3.4380999440251088e+01 3 -1 0
316 1 6.2281841438104140e+00 7.1456778699328209e+00 3.0393894348658328e+01 -2 2 0
294 2 1.8124200781288806e+00 8.6129651524441577e+00 3.5428022800623644e+01 1 -3 0
398 1 3.6526464403908099e+00 8.5189405665298654e+00 3.3835184303888120e+01 2 -4 0
541 1 2.2981424914853927e+00 8.5192225705335840e+00 3.6281067370217954e+01 3 2 0
564 2 4.8158409334908425e+00 6.7747238527654607e+00 3.6170492068431322e+01 5 2 0
228 2 4.4705570335360525e+00 8.7697960312509853e+00 3.9903258107754276e+01 0 1 0
303 2 2.3874151364252763e+00 7.7701668977399150e+00 3.8119136501866670e+01 4 5 0
498 2 5.8268252155572693e+00 7.3572668780220747e+00 4.1699337077364419e+01 4 -1 0
262 1 3.3659393041122900e+00 5.9986850452334926e+00 4.0883791796820539e+01 -2 -1 0
389 1 1.2662873202281060e+00 8.3359396842240230e+00 4.2314461285103334e+01 0 -4 0
301 1 2.2814974333578926e+00 6.7725252927333361e+00 3.8072736947775361e+01 4 5 0
205 1 4.4922404240340228e+00 7.5660093838530003e+00 3.6713694240571598e+01 0 -2 0
319 1 9.0907028357189867e-01 5.2296594106811041e+00 3.7020247945193752e+01 7 1 0
563 1 3.7194563175344810e+00 8.3855270907756623e+00 3.9374124791730232e+01 2 3 0
227 1 4.8062706788783913e+00 8.1090250421438164e+00 4.0562403676202393e+01 0 1 0
289 1 6.4123957391180531e-01 8.5825809648751630e+00 4.0154061194521894e+01 4 -3 0
264 2 3.4995439105880037e+00 5.3436042759531812e+00 4.0196924518813937e+01 -2 -1 0
378 2 8.5585679728833852e-01 7.7083807546092062e+00 4.1666000888226193e+01 0 0 0
302 1 1.5715050705058331e+00 8.1409943703943153e+00 3.8564014008771444e+01 4 5 0
321 2 6.0822223731499014e-01 5.4013393268340701e+00 3.7917329015846384e+01 7 1 0
320 1 1.0960928092434776e+00 4.8326914590593359e+00 3.8543335227352948e+01 7 1 0
536 1 1.0322859448802755e+00 6.8182721533966939e+00 4.2093947760327623e+01 -1 -1 0
493 1 6.5320412401072732e+00 5.9113645722376651e+00 3.6458202363210006e+01 -5 1 0
547 1 3.5832398745556224e+00 4.4550800552323961e+00 4.0620134229944078e+01 3 1 0
322 1 1.8020194253706938e+00 5.2179262293488833e+00 4.7054451037373020e+01 -3 -5 0
267 2 4.2609222770657391e+00 7.1047500884791051e+00 4.5962784971157866e+01 -3 -4 0
189 2 4.0934674085769798e+00 6.0611867434452691e+00 4.3585230010062318e+01 -1 7 0
240 2 1.5722826564497741e+00 6.1875380164551954e+00 4.7222952052790809e+01 4 1 0
421 1 4.8604674336417473e+00 7.8587992442111982e+00 4.5741069642242941e+01 3 1 0
557 1 7.2857171636145679e-01 6.1824536346025640e+00 4.6617127440590160e+01 1 -4 0
532 1 2.6183881689760016e+00 5.7837094355301195e+00 4.3126853772955791e+01 0 6 0
188 1 3.7690832161736529e+00 6.3495605352482647e+00 4.4596250092300714e+01 -1 7 0
487 1 4.4104329474358739e+00 6.6480885620232675e+00 4.6827871568983724e+01 4 1 0
187 1 4.5295719238447836e+00 5.1650482500430943e+00 4.3517694501153244e+01 -1 7 0
231 2 1.6413898453582523e+00 5.5419368926895451e+00 4.2941378337864371e+01 0 4 0
436 1 2.0135376568925860e+00 8.1260477050337609e+00 4.6738604036540707e+01 1 -2 0
311 1 1.5172972497758048e+00 4.5970812835934156e+00 4.2733715686451724e+01 2 -2 0
95 2 4.4703513397752195e+00 6.1096137028636734e+00 4.8247544509257580e+01 0 -1 -1
535 1 2.8796392374526320e-01 6.0054608355208128e+00 4.4189512921954922e+01 -1 -6 0
392 1 5.3958722877003336e+00 6.8130496763520068e+00 4.2401866720309407e+01 2 5 0
470 1 6.2321793289005818e+00 4.4736182524650623e+00 4.4510972198587879e+01 -1 -2 0
33 2 9.1904192094739070e+00 1.7517766341045815e+00 1.1529591648011566e+00 -1 0 0
40 2 1.0031417373664452e+01 1.7607106069192326e+00 4.4787846725848421e+00 -1 0 0
62 3 7.8960326110531014e+00 3.2264438045806174e+00 8.3421283306052874e-01 -1 0 0
39 2 1.2570810489341728e+01 1.7720056938024384e+00 4.3830381711805924e+00 -1 0 0
36 2 1.1162915822292273e+01 1.5510429562251479e-01 2.2805600749801807e+00 -1 0 0
42 2 7.9611044808453366e+00 2.5371583086694144e-01 5.6005362339214297e+00 -1 0 0
31 3 1.1143435361783286e+01 1.6282298070702443e+00 1.1995729730159730e+00 -1 0 0
66 2 1.1466447884328112e+01 3.2792026942184775e+00 2.3354114332767635e+00 -1 0 0
72 2 7.8114832556676674e+00 3.3327084344303395e+00 5.5709256545830819e+00 -1 0 0
68 3 1.1342892361988289e+01 3.3619126917785720e+00 4.6321123132879620e+00 -1 0 0
37 3 8.0497477087625740e+00 1.8749435295807038e+00 4.3523549174844769e+00 -1 0 0
71 2 7.8817189453416470e+00 3.3028880074985301e+00 3.0215379368364408e+00 -1 0 0
41 2 7.8575217861554147e+00 3.7506788765626570e-01 3.0995503581897967e+00 -1 0 0
32 3 7.8754797542751067e+00 2.1461595846197662e-01 1.3198744692524780e+00 -1 0 0
38 3 1.1130853490850125e+01 3.0299063289488054e-01 4.5314873617066684e+00 -1 0 0
78 2 1.1085721228323310e+01 3.2635446699461541e+00 9.0083427523094706e+00 -1 0 0
52 2 9.9839343389757076e+00 1.7251660672178879e+00 1.1173722848051625e+01 -1 0 0
48 2 1.1285008251530057e+01 4.0318453951033684e-01 9.0282865783759121e+00 -1 0 0
77 2 1.1263364695482748e+01 3.3902419249858542e+00 6.4527296458693915e+00 -1 0 0
45 2 9.1482813415081221e+00 1.8162771264278099e+00 7.5450208375056897e+00 -1 0 0
74 3 7.8894638648489659e+00 3.1645741077032437e+00 7.5580975645473254e+00 -1 0 0
80 3 1.1322221553689953e+01 3.1840463313321288e+00 1.1280280782558849e+01 -1 0 0
51 2 1.2565990177057358e+01 1.7649973905728533e+00 1.1054071710129257e+01 -1 0 0
49 3 8.0236611729736751e+00 1.7203011678411639e+00 1.0895716907865275e+01 -1 0 0
43 3 1.1392937458909103e+01 1.8282221070947680e+00 7.9681406297613231e+00 -1 0 0
83 2 8.0329054818944989e+00 3.2193056984116337e+00 9.7508104124109281e+00 -1 0 0
44 3 7.9619913905677100e+00 2.8163269398449703e-01 7.5634991476240270e+00 -1 0 0
50 3 1.1273349472523575e+01 2.5799751630177525e-01 1.1289737038098977e+01 -1 0 0
53 2 8.0552040592957983e+00 1.6274534574623969e-01 9.7155625604137832e+00 -1 0 0
47 2 1.1288563926972557e+01 3.2723323659895487e-01 6.3414597225250340e+00 -1 0 0
46 2 6.6618382487370784e+00 1.7693230007944687e+00 7.5527467487413427e+00 -1 0 0
60 2 1.1222039410368838e+01 3.2867029909961298e-01 1.5653952214722095e+01 -1 0 0
86 3 7.8485473885461392e+00 3.3419238566583931e+00 1.4046662464139152e+01 -1 0 0
56 3 8.0425365764130028e+00 4.2931693439701385e-01 1.4415712053099405e+01 -1 0 0
90 2 1.1130922622202696e+01 3.4280756006072037e+00 1.5624020788507252e+01 -1 0 0
479 1 1.1750491352108716e+01 4.0664509462899101e+00 1.7221565456590845e+01 5 4 0
84 2 7.9445848998630080e+00 3.2903701005930213e+00 1.2222584174379289e+01 -1 0 0
335 1 7.4274705125147165e+00 2.9744368067059224e+00 1.6916203070200119e+01 3 3 0
57 2 9.2008568857772488e+00 1.7399296674319822e+00 1.4379251456426656e+01 -1 0 0
55 3 1.1234433874263622e+01 1.8000864422783704e+00 1.4608476095722619e+01 -1 0 0
89 2 1.1425285576075460e+01 3.1587224654279793e+00 1.3059754426508167e+01 -1 0 0
381 2 8.1603188491221506e+00 3.2809454144656613e+00 1.6349686941535982e+01 1 -2 0
59 2 1.1248803402946889e+01 3.2207491171100239e-01 1.3082759156679671e+01 -1 0 0
489 2 8.0257848118460480e+00 3.2360417640466466e-01 1.6387828354696669e+01 4 5 0
515 1 8.8309023241617872e+00 2.5853315202324305e+00 1.6572450560333241e+01 -4 2 0
54 2 7.9928271536469344e+00 4.0263120047228845e-01 1.2268244350207562e+01 -1 0 0
465 2 1.2447814002787291e+01 4.2910853392435220e+00 1.8007483332065576e+01 4 -1 0
58 2 6.6924531721720459e+00 1.8367917796604656e+00 1.4346087076199412e+01 -1 0 0
380 1 7.2454569626048846e+00 6.9646420204505799e-01 1.6845808265909554e+01 1 -1 0
484 1 1.1805053543871376e+01 5.6740519336734206e-02 1.7504237850046614e+01 -1 -1 0
148 2 1.3150691896174454e+01 1.7672217315074945e+00 1.4677794175519637e+01 -1 0 0
210 2 1.1892473401172323e+01 2.0662635479518512e+00 2.2478698060987380e+01 -1 -4 0
347 1 8.1959237383550185e+00 4.2355947671228424e+00 1.9853640800608893e+01 2 6 0
209 1 1.2177693537659495e+01 1.8972841497101895e+00 2.1549666827835747e+01 -1 -4 0
343 1 9.0991325688787317e+00 2.9101569040794453e+00 2.1207001578227555e+01 2 4 0
248 1 1.1088702656794549e+01 2.6375409913521901e+00 2.2606482303631637e+01 0 3 0
435 2 9.2145003929574525e+00 2.7267967024833339e+00 2.0212027242037074e+01 2 3 0
207 2 9.5542843952465439e+00 3.4175318982241856e+00 2.2843692969581671e+01 -3 4 0
254 1 1.0850808388238294e+01 2.4041352681473169e+00 1.9591726652918783e+01 0 1 0
255 2 1.1817496553982881e+01 2.2448655253155305e+00 1.9761727639051379e+01 0 1 0
533 1 8.8103489034439750e+00 1.8632266303162928e+00 1.9889782601143654e+01 1 8 0
199 1 1.1284029039518604e+01 2.0355706112254837e-01 2.3269020533929499e+01 -1 -1 0
253 1 1.2007889996486465e+01 1.3450135465608064e+00 1.9330242105054833e+01 0 1 0
463 1 1.2160355306198660e+01 3.6007459053332451e+00 1.8626945279115471e+01 4 -1 0
194 1 9.2806754769709858e+00 3.0085595210259370e+00 2.3671125114960329e+01 0 1 0
369 2 1.2405236738190876e+01 3.9188178395630456e-02 1.8268707555189128e+01 1 -2 0
193 1 9.7821638770919925e+00 4.4194647318701428e+00 2.2998033742260137e+01 0 0 0
444 2 7.6776596916309590e+00 3.8564233049269179e+00 2.9318020399161679e+01 0 11 0
466 1 6.6657651075563447e+00 3.5988527793173425e-01 2.7990286689810979e+01 3 1 0
425 1 7.9988743674777467e+00 1.6979544256328951e+00 2.4935874581497583e+01 -1 1 0
355 1 8.7932548907883259e+00 2.3855175984211554e+00 2.6085286047139874e+01 -3 2 0
443 1 8.4611591660549657e+00 3.5958890673288564e+00 2.8792355438100813e+01 0 11 0
376 1 7.6067669182494830e+00 4.2149723036487377e+00 2.4995936835171378e+01 1 -3 0
219 2 1.2457178676447862e+01 3.2259131966270793e+00 2.8493413239435686e+01 2 -6 0
247 1 9.5307085276014352e+00 1.8569584050834980e+00 2.8526813308099022e+01 -1 1 0