LAMMPS data file via write_data, version 5 Jun 2019, timestep = 1020000

528 atoms
3 atom types

0.0000000000000000e+00 1.3959816000000000e+01 xlo xhi
0.0000000000000000e+00 1.1039765715121495e+01 ylo yhi
0.0000000000000000e+00 3.3880099999999999e+01 zlo zhi

Masses

1 1
2 16
3 47.86

Atoms # atomic

104 3 1.0080572864278183e+00 4.9933942488077552e+00 3.2095971909831276e+00 0 -1 0
103 3 2.9918371268184885e+00 2.1796144362051395e+00 3.0420482370523549e+00 0 -1 0
99 2 1.8211023886514355e+00 4.9142875616837580e+00 1.5585107166496910e+00 0 -1 0
105 2 1.7369635387264346e+00 3.4280118931291126e+00 4.0869152713436190e+00 0 -1 0
101 2 2.2457740561161179e+00 2.2447789813651435e+00 1.4219228635033947e+00 0 -1 0
122 3 6.5558441959933222e-01 8.8760425531358222e-01 6.9951193484313867e-01 0 0 0
131 2 2.2523423409820675e+00 6.0363455184365344e-01 4.0591045557380294e+00 0 0 0
97 3 3.3517648452968363e+00 3.9418692140367999e+00 5.2584721398929934e-01 0 -1 0
119 2 2.2303105304895756e+00 2.9785022114042872e+00 9.0169921976363980e+00 0 -1 0
115 3 3.0123326569364384e+00 4.5189863434806243e+00 8.1863491513596180e+00 0 -1 0
135 2 1.7098138652544932e+00 1.8119919230267612e+00 6.4071721223240239e+00 0 0 0
110 3 8.3182831712024830e-01 3.4552951111542716e+00 5.7577696899391260e+00 0 -1 0
140 3 8.9746857206954256e-01 1.5480178500970223e+00 8.0567046559272288e+00 0 0 0
133 3 3.2252173820892613e+00 5.5571209604317828e-01 5.6301771183681604e+00 0 0 0
113 2 2.2632650217247727e+00 4.5580284058673737e+00 6.4827919654021553e+00 0 -1 0
141 2 1.7109056623326422e+00 1.5667034534657409e-01 8.8984675389741259e+00 0 0 0
394 1 7.0160851423000736e-01 4.7076634491613447e+00 9.5620506730139212e+00 0 -1 0
364 1 2.9102469459992206e+00 2.7031421123401627e+00 9.6464580762370140e+00 0 -1 0
473 1 2.0056770568479139e+00 4.6904980109713507e-01 1.2823979231818665e+01 -1 7 0
472 1 1.3231854948800728e+00 8.1496290911622105e-01 1.1456051605492823e+01 -1 7 0
474 2 1.1530186907175490e+00 4.8841014456963655e-01 1.2327356955166605e+01 -1 7 0
187 1 2.3841052969870069e+00 5.2377857976664348e+00 1.2998432255828904e+01 -2 -6 0
188 1 1.6477344692221358e+00 5.1867799005853286e+00 1.1624462908787185e+01 -2 -6 0
189 2 1.4846320810288767e+00 5.4771864894796414e+00 1.2568118883684969e+01 -2 -6 0
455 1 1.5299603454320021e-01 2.8105296236638622e+00 1.0160515466206911e+01 0 0 0
368 1 1.1325965953687158e+00 1.0410328913286124e+00 1.7776630648350778e+01 4 1 0
367 1 1.0549605212624396e+00 7.0601352754242974e-01 1.6215579807940639e+01 4 1 0
523 1 2.2027296460190451e+00 5.1243060950141590e+00 1.7827128492331457e+01 8 -3 0
525 2 1.7312729458152378e+00 4.5981783564764749e+00 1.8481388323610698e+01 8 -3 0
334 1 2.9790821673820389e+00 1.8327072356209657e+00 1.6222517516051866e+01 -1 -7 0
328 1 4.2627681040688603e-01 2.8269457286290858e+00 1.6516697929877804e+01 6 7 0
524 1 9.8386968326671331e-01 4.2880038303669803e+00 1.7924918539523905e+01 8 -3 0
369 2 1.4548999849630153e+00 1.3006559446259107e+00 1.6880299114018065e+01 4 1 0
329 1 1.2208122405159560e-01 4.3757698304429997e+00 1.6081526578542878e+01 6 7 0
258 2 5.7024666563015503e-01 8.1323072974168154e-01 1.9165500495999652e+01 -1 8 0
457 1 2.3285455447130103e+00 3.3605066742433221e+00 1.9261773129594729e+01 1 4 0
323 1 3.9717725557767170e-01 4.7449989426144938e+00 1.9482706481464845e+01 1 7 0
515 1 6.1123668975916057e-01 2.1355577683933888e+00 2.3361009518572132e+01 -5 -5 0
514 1 1.4115985823686511e-01 3.6160420424069355e+00 2.3715532206690749e+01 -5 -5 0
459 2 2.5108046489148697e+00 2.6510333355981404e+00 1.9906815392542246e+01 1 4 0
458 1 3.2028803838046698e+00 2.9693201287789117e+00 2.0471286914575959e+01 1 4 0
257 1 1.0583538439270670e+00 1.4939479608038913e+00 1.9674040843914018e+01 -1 8 0
307 1 2.7969382959569717e+00 2.9646487270858429e-01 2.2875250865063926e+01 2 -5 0
282 2 3.5658985792466585e-01 5.2957303881664846e+00 2.4094872519825557e+01 9 8 0
309 2 1.8287119755127887e+00 2.4438735032817807e-01 2.2996289243629715e+01 2 -5 0
167 1 1.9060195133758804e+00 3.6614348003301123e+00 2.6574440884209071e+01 2 2 0
401 1 1.0019744537037232e+00 2.9602340254461375e+00 2.8103358639133244e+01 8 3 0
491 1 3.1830751220774158e+00 9.0363679790783566e-02 2.5879861650196137e+01 14 -1 0
402 2 5.2319773629792732e-01 3.0058921655819182e+00 2.7223219195452064e+01 8 3 0
166 1 3.1292784373223994e+00 2.9616486315830421e+00 2.5752231694766738e+01 2 2 0
168 2 2.7751390555374820e+00 3.8031352783641417e+00 2.6157574414628996e+01 2 2 0
157 1 3.3413582825477337e+00 2.4336006918981914e+00 2.8525223054119600e+01 5 -3 0
483 2 1.9632585096362913e+00 9.5688100217262639e-01 3.2797830126225087e+01 0 0 0
255 2 2.1903502576065832e+00 3.8124211681525098e+00 3.3014584221765631e+01 0 0 0
460 1 2.2478911589006301e+00 4.4002407486809805e+00 3.2261501075301439e+01 0 -2 0
482 1 2.1085051572029521e+00 1.8413044977825159e+00 3.2458040435202555e+01 0 0 0
233 1 2.0280164525239766e+00 4.0687477495356461e+00 2.9680537704561438e+01 0 9 0
439 1 2.9492692170683332e+00 8.3372449496238943e-01 3.3260132201812368e+01 0 -1 0
481 1 6.2211720165434448e-01 3.3345488681022406e+00 3.3511197365518107e+01 0 -1 0
232 1 1.4110069150353168e+00 2.6853218539179551e+00 3.0199160757928883e+01 0 9 0
234 2 1.8893827269295356e+00 3.0996195144076859e+00 2.9519797530122741e+01 0 9 0
231 2 6.5350600732935707e-02 4.5883505472895346e-02 2.9575795938153565e+01 -3 -2 0
98 3 7.6462530324161537e-01 6.3741484260139787e+00 7.3097018679596082e-01 0 -1 0
123 2 1.7103196389259361e+00 1.0482825009114414e+01 1.4093726564633868e+00 0 -1 0
127 3 3.0166099452722230e+00 7.6267377640255525e+00 3.1166234551671987e+00 0 -1 0
129 2 1.6927435057603826e+00 8.7877567274950881e+00 3.8189010407579125e+00 0 -1 0
125 2 2.2416647914975538e+00 7.5528687567301453e+00 1.5261651086983583e+00 0 -1 0
128 3 8.6199615069248126e-01 1.0476398435604937e+01 3.2855552087226654e+00 0 -1 0
107 2 2.3237246751838256e+00 6.1356651048550548e+00 4.0152511882660367e+00 0 -1 0
121 3 3.2273458423359620e+00 9.4063209750831689e+00 7.5671728738754240e-01 0 -1 0
116 3 8.4353404023585210e-01 7.0500614294776458e+00 8.0446393374965659e+00 0 -1 0
137 2 2.2109738578635949e+00 1.0086649427482941e+01 6.5136047129249697e+00 0 -1 0
143 2 2.3268728093276829e+00 8.5076776504251779e+00 9.0602828806098117e+00 0 -1 0
111 2 1.8444751430881559e+00 7.2753791127838827e+00 6.4763503937012388e+00 0 -1 0
134 3 7.6432922572032547e-01 8.8185939888616467e+00 5.7272427766040881e+00 0 -1 0
139 3 3.0345522232091402e+00 1.0062910123815012e+01 8.1429726055661931e+00 0 -1 0
109 3 3.4430501512140284e+00 6.1976897817098138e+00 5.7883312544419754e+00 0 -1 0
117 2 1.8450641071836966e+00 5.7066061677521311e+00 8.9329788295454708e+00 0 -1 0
435 2 1.1118381533686692e+00 8.4510370862700537e+00 1.1696618972225183e+01 3 5 0
434 1 1.5708208957747838e+00 7.7976629492188545e+00 1.2248753368497731e+01 3 5 0
217 1 1.9700476423051474e+00 8.6891904895923897e+00 9.9422909232030428e+00 0 -1 0
433 1 1.2879356424127146e+00 9.3304127707584499e+00 1.2128380459917956e+01 3 5 0
278 1 4.2774129032160102e-01 5.9425957987241400e+00 1.4039972749154384e+01 4 15 0
407 1 5.3436314104025634e-02 7.8287750871764681e+00 1.0726041397573775e+01 0 0 0
454 1 4.0904081138508191e-01 1.0459911340324396e+01 9.9066679661470634e+00 0 -1 0
476 1 2.6985083666702945e+00 7.1084279904027499e+00 1.6218513922125247e+01 1 10 0
197 1 5.3126711561140805e-01 8.9490349305056061e+00 1.8558164938746319e+01 6 3 0
196 1 1.5229075978651558e+00 8.7171336253031289e+00 1.7439319588455174e+01 6 3 0
210 2 1.7444762627124899e+00 8.0652039176380885e+00 1.4896595282635419e+01 5 8 0
208 1 1.0555685517484710e+00 8.8354119004182667e+00 1.4828479436512296e+01 5 8 0
198 2 5.6495222267958356e-01 8.6222580187386271e+00 1.7609289936898794e+01 6 3 0
209 1 1.1169199796017215e+00 7.3504670931071860e+00 1.4991748429465105e+01 5 8 0
240 2 3.3462962894146235e+00 9.2109419946583646e+00 1.7948153109646704e+01 -4 -2 0
477 2 2.9529746208114518e+00 6.1892330105793061e+00 1.6444536402624557e+01 1 10 0
279 2 1.0625258124857358e-01 5.9100634607605107e+00 1.4913287869794990e+01 4 15 0
170 1 1.2669221809399991e-01 9.5722415470437383e+00 1.6373193084965902e+01 1 4 0
475 1 3.0765100936201879e+00 5.8092931241112229e+00 1.5512987870848210e+01 1 10 0
171 2 1.6422052199846604e-02 1.0165256747936500e+01 1.5618065695033446e+01 1 4 0
484 1 1.6175251753837205e+00 8.9789890895135898e+00 2.0909799169345767e+01 -2 8 0
286 1 5.7007585368423885e-01 7.9240396319895146e+00 2.2920986231042768e+01 5 6 0
280 1 1.0392391622508093e+00 5.7647190879187269e+00 2.3521302272836248e+01 9 8 0
486 2 8.3886048981503136e-01 9.3354795835144309e+00 2.0439151855168966e+01 -2 8 0
287 1 2.1215530971829328e+00 7.8299343560062615e+00 2.2558575277106193e+01 5 6 0
288 2 1.4844641266580800e+00 7.7687532978512417e+00 2.3276078613963229e+01 5 6 0
308 1 1.4939973597702272e+00 1.0560365066150974e+01 2.2461440721690245e+01 2 -6 0
256 1 9.4653308047824170e-01 1.1028129967778824e+01 1.9588858025465473e+01 -1 7 0
485 1 1.9564038953150842e-02 9.2411127493995888e+00 2.1020398403957138e+01 -2 8 0
311 1 7.9476240897412831e-01 1.0835370806592710e+01 2.6130581831354512e+01 5 2 0
153 2 9.6276423320687277e-01 7.5788682333470909e+00 2.6220513431859860e+01 4 -1 0
513 2 2.6612257521093787e+00 7.8476227383039472e+00 2.8548934756120794e+01 -1 -2 0
152 1 9.1638515181567981e-01 7.0261987373584747e+00 2.5407290217981995e+01 4 -1 0
312 2 1.5393734027135335e+00 1.0446276318622598e+01 2.5599997354535830e+01 5 2 0
310 1 1.5245134399564377e+00 1.0766316321836138e+01 2.4675269962050596e+01 5 2 0
151 1 7.6565061263949963e-01 8.5210101041088606e+00 2.5932829796134577e+01 4 -1 0
511 1 1.9151328666090137e+00 7.7826941925552573e+00 2.7953661077259461e+01 -1 -2 0
292 1 3.2034129835511895e+00 8.1603670370174566e+00 2.4621701064686427e+01 12 4 0
512 1 3.4100205880713754e+00 7.8714514317025479e+00 2.7814801302731642e+01 -1 -2 0
441 2 2.2307558843650424e+00 9.0623863408858636e+00 3.3065313090632593e+01 0 -1 0
462 2 2.0332291901902630e+00 6.6451844270543052e+00 3.3078348086361515e+01 0 -1 0
461 1 2.0761332624478266e+00 9.3381612858256560e+00 3.2093259491856223e+01 0 -2 0
440 1 2.9266223058179590e+00 6.3079098046435318e+00 3.3312761226749458e+01 0 -1 0
253 1 2.1334201489390838e+00 7.8409295081959272e+00 3.2969372212847553e+01 0 0 0
184 1 1.7562281459040934e+00 1.0402433633082094e+01 3.0258161685396626e+01 -1 -1 0
252 2 2.5813321229281243e+00 5.6862053110795268e+00 3.0473239728892651e+01 2 2 0
186 2 2.2470539351886814e+00 9.6059716324426692e+00 3.0584299632305182e+01 -1 -1 0
251 1 2.1884853309563863e+00 6.2352796775699035e+00 3.1135113646322889e+01 2 2 0
254 1 4.7925998355643329e-01 8.6613793088284936e+00 3.3779959719283944e+01 0 0 0
250 1 2.5441634124189538e+00 6.3275925646851796e+00 2.9674475613691882e+01 2 2 0
185 1 2.1163121862121979e+00 8.9542748566973973e+00 2.9867196958000040e+01 -1 -1 0
130 2 4.5453774158839355e+00 1.0210353608853548e+00 2.4985675528030735e+00 0 0 0
9 2 6.2946366236284801e+00 3.3442655179021208e+00 4.0761623536090550e+00 -1 -1 0
8 3 5.3804029875092549e+00 4.8809199835997275e+00 3.2724098664332217e+00 -1 -1 0
3 2 6.4197569691559710e+00 4.9385734324387860e+00 1.5342651225688402e+00 -1 -1 0
108 2 4.0421384833448446e+00 3.7865854613011880e+00 2.5432959021081332e+00 0 -1 0
26 3 5.5175173903141088e+00 1.0607055655481885e+00 8.2270811179049119e-01 -1 0 0
35 2 6.9066286857396415e+00 6.8631583249769845e-01 4.1212626378221362e+00 -1 0 0
5 2 6.8801867617578907e+00 2.1976988526918375e+00 1.5430401913335456e+00 -1 -1 0
102 2 4.1684420193775038e+00 5.4666136151877351e+00 5.3793874082715819e-02 0 -1 0
114 2 4.0666332573617492e+00 2.1577885031169606e+00 5.0645603305893667e+00 0 -1 0
14 3 5.2893711632489211e+00 3.2528599099249598e+00 5.8438463564396050e+00 -1 -1 0
44 3 5.4418917420256898e+00 1.6142343503467471e+00 8.3900367917968630e+00 -1 0 0
39 2 6.3900571644609983e+00 1.7258649772393249e+00 6.6840341420027958e+00 -1 0 0
118 2 4.5138763970362534e+00 3.2978082919221285e+00 7.5290347634330006e+00 0 -1 0
144 2 4.0349133749401593e+00 5.4643623894645821e-01 7.4973171270305077e+00 0 0 0
112 2 4.5343431973444881e+00 4.8689645929531160e+00 4.9879495672971279e+00 0 -1 0
17 2 6.9672243745668707e+00 4.4543965394691911e+00 6.5826530462500994e+00 -1 -1 0
45 2 6.4229874996192500e+00 2.2562308109813101e-01 9.0242347738640412e+00 -1 0 0
23 2 6.9448689670773884e+00 2.9218870795237519e+00 9.0487326663571324e+00 -1 -1 0
376 1 5.1112760261505379e+00 1.9471027726432335e+00 1.0693154658538315e+01 0 0 0
365 1 4.4009610844940878e+00 3.6786376144252353e+00 1.0293337305395619e+01 0 -1 0
366 2 4.2790876082633327e+00 4.5993234818929105e+00 1.0059926034267626e+01 0 -1 0
381 2 3.6285300004248788e+00 4.8421192397795156e+00 1.4077227004569865e+01 8 -8 0
379 1 4.5667794501334980e+00 5.1793403133492610e+00 1.3995286376536843e+01 8 -8 0
206 1 4.3728663304610498e+00 1.0344689568170211e+00 1.2927915294288054e+01 2 10 0
471 2 4.4431881555462542e+00 1.8966643324073824e+00 9.9368362688184337e+00 0 0 0
267 2 6.0507715353728653e+00 1.4846037967018924e+00 1.2415819856396874e+01 3 -1 0
207 2 3.7519948269279615e+00 5.6448558347115640e-01 1.3483671596508751e+01 2 10 0
266 1 6.4830971465499996e+00 2.3334109493861432e+00 1.2590772876632490e+01 3 -1 0
265 1 6.7379228317832096e+00 7.7550645746261915e-01 1.2524531987322611e+01 3 -1 0
370 1 6.6349913484692351e+00 4.9026998424360340e+00 1.3293948025067898e+01 5 0 0
380 1 3.6504420614468751e+00 3.9263631279882447e+00 1.4469700451578356e+01 8 -8 0
469 1 5.1871131041052063e+00 4.6973132744617327e+00 9.6927157673821682e+00 0 0 0
336 2 3.7116538450438652e+00 2.1622460131155368e+00 1.5695062352190636e+01 -1 -7 0
315 2 5.7826972566086718e+00 1.1620014974379125e+00 1.7383047183166450e+01 -3 -1 0
313 1 5.2670526119767933e+00 1.6838057509870745e+00 1.6712732573730964e+01 -3 -1 0
506 1 5.8516330657636839e+00 4.7351575808811202e+00 1.8638102762020438e+01 7 12 0
314 1 5.2734421913313785e+00 9.1626256714290111e-01 1.8137605692651171e+01 -3 -1 0
335 1 3.5713383899869053e+00 1.6280812769042681e+00 1.4915716417723212e+01 -1 -7 0
182 1 4.4977526651253426e+00 1.5221968094022131e+00 2.2168469925327006e+01 0 3 0
228 2 4.3833584220342248e+00 5.3144710927150429e+00 2.4138876668137875e+01 4 -5 0
181 1 4.9611799010411781e+00 3.3492108631342077e-01 2.3047359444539282e+01 0 3 0
183 2 4.4316299673557014e+00 5.3438977731616322e-01 2.2205938685437395e+01 0 3 0
416 1 5.3610427406111061e+00 3.8018737875957194e+00 2.0711940232276522e+01 -2 3 0
417 2 4.8382538200740672e+00 3.3733868903632951e+00 2.1410987117836900e+01 -2 3 0
415 1 4.3176862310038366e+00 3.9977042377162864e+00 2.1914545471110177e+01 -2 3 0
429 2 4.0508739217220882e+00 3.5840609829812126e-01 1.9369131489204776e+01 -7 -1 0
414 2 6.3107073166325351e+00 2.3090343769241406e-02 2.4074394013627227e+01 3 -8 0
428 1 3.5109266034534143e+00 1.2191272449498451e+00 1.9533238302171444e+01 -7 -1 0
507 2 6.0891593320151882e+00 4.6992828656212868e+00 1.9541504133468717e+01 7 12 0
412 1 6.8308899990539969e+00 9.2086803835041298e-01 2.4092639154713890e+01 3 -8 0
427 1 4.3024269650861084e+00 2.7179007396963328e-02 2.0230054359476760e+01 -7 -1 0
411 2 4.8570352893761735e+00 5.2842366581100597e+00 2.7205208931987752e+01 7 13 0
159 2 4.2276627572112568e+00 2.0247952371558755e+00 2.8298384944785500e+01 5 -3 0
158 1 4.0453605243180464e+00 1.4312253397478929e+00 2.7527053790025512e+01 5 -3 0
409 1 4.2551005770158765e+00 4.6123272556665951e+00 2.6903127439186576e+01 7 13 0
410 1 5.5154575612549586e+00 4.9190174280909433e+00 2.7776258999148386e+01 7 13 0
283 1 5.9065172048324097e+00 2.1376245727254912e+00 2.8553466574611424e+01 1 14 0
490 1 4.7576972793772718e+00 2.8466067982694160e-01 2.5434391204255007e+01 14 -1 0
492 2 3.9418598826321016e+00 7.1278128062272772e-01 2.5844125684739023e+01 14 -1 0
149 1 5.9770590597261162e+00 4.5998277543413311e+00 2.4577145648062064e+01 4 -9 0
150 2 6.8941634457255825e+00 4.2831400099509942e+00 2.4560272248043933e+01 4 -9 0
285 2 6.8116206041285441e+00 1.9925286724577658e+00 2.8316587257853481e+01 1 14 0
226 1 3.7301895335726138e+00 4.9323862169276049e+00 2.4732542112252386e+01 4 -5 0
391 1 5.3106792098566729e+00 4.3514734393210457e+00 3.0576706921761616e+01 9 -1 0
290 1 4.5547397224247215e+00 2.2692801988723801e+00 3.0263926808265801e+01 1 2 0
393 2 5.3418550708479033e+00 5.3427636652804491e+00 3.0688654208264403e+01 9 -1 0
212 1 5.9303529082737265e+00 3.2279112507796204e+00 3.3265457258428398e+01 -1 0 0
289 1 4.9252266052368974e+00 2.6818313077074238e+00 3.1703767741707260e+01 1 2 0
100 2 4.5532356614292775e+00 2.5960376586520519e+00 3.3804719478402355e+01 0 -1 -1
420 2 6.8380619955643045e+00 3.4599860187431122e+00 3.2991592390119052e+01 0 0 0
291 2 5.2307322232749636e+00 2.7443715801856308e+00 3.0778705429801128e+01 1 2 0
213 2 6.7461016587490130e+00 8.6553112670876908e-01 3.3040882728364778e+01 -1 0 0
202 1 4.9099372036324871e+00 1.4598096348760947e-01 3.1792367219794745e+01 -5 6 0
204 2 4.8045169119992570e+00 3.3575618497605930e-02 3.0767587245939588e+01 -5 6 0
392 1 4.3683765463135753e+00 5.4979376330931204e+00 3.0713141679828901e+01 9 -1 0
106 2 4.7866456931854255e+00 6.6648843443265120e+00 2.5370606769376884e+00 0 -1 0
32 3 5.5703081084633430e+00 1.0421919799376116e+01 3.2134133379542038e+00 -1 -1 0
33 2 6.4059058407159624e+00 9.0313640903251571e+00 4.0235491006644271e+00 -1 -1 0
132 2 4.0197176915173891e+00 9.2544281162012414e+00 2.5635054018268244e+00 0 -1 0
2 3 5.5655710185966152e+00 6.4993443395691504e+00 8.6348371879574426e-01 -1 -1 0
27 2 6.4904173123395594e+00 1.0587297960745623e+01 1.5531374679346177e+00 -1 -1 0
29 2 6.9204404111873190e+00 7.8332535344264214e+00 1.4781510802893347e+00 -1 -1 0
11 2 6.9163224617792753e+00 6.1440741627804591e+00 4.1120737011467838e+00 -1 -1 0
124 2 4.5563479315455959e+00 8.1283981711098274e+00 4.9346177633368044e-02 0 -1 0
142 2 4.5706830244475762e+00 8.8401084700513071e+00 7.5326039070887481e+00 0 -1 0
21 2 6.5563749116559258e+00 5.7135657604599981e+00 9.0639958129629292e+00 -1 -1 0
136 2 4.5513270564986659e+00 1.0497588495507399e+01 4.9035043045338034e+00 0 -1 0
20 3 5.6226069544918413e+00 7.1977924530670760e+00 8.4648844518729884e+00 -1 -1 0
38 3 5.3570501709535909e+00 8.8965852182639082e+00 5.8253035747647335e+00 -1 -1 0
15 2 6.3227394881147294e+00 7.2647565999378152e+00 6.5488762166386438e+00 -1 -1 0
47 2 6.8794505339794059e+00 8.4823934612630811e+00 9.1239117281107429e+00 -1 -1 0
120 2 4.1713142969262504e+00 5.9321581598391724e+00 7.4666208691793372e+00 0 -1 0
138 2 4.1275607694874399e+00 7.7327076982374097e+00 4.9736307290742854e+00 0 -1 0
41 2 6.8790134313396702e+00 1.0029979213535025e+01 6.5614386981757251e+00 -1 -1 0
502 1 5.6849308865493660e+00 7.8376827473657746e+00 1.1317945943212417e+01 6 -3 0
219 2 4.6714456918290832e+00 7.4029201660936765e+00 1.0057703983846780e+01 0 -1 0
378 2 4.1499855202796150e+00 1.0056888075380893e+01 9.9741191432832252e+00 0 -1 0
470 1 4.4591131370184431e+00 9.1423884847481762e+00 1.0086703810203401e+01 0 -1 0
503 1 5.4902518793736013e+00 8.1239027031219972e+00 1.2873873690259138e+01 6 -3 0
504 2 6.1327790869654883e+00 7.9308620233426774e+00 1.2188890535928349e+01 6 -3 0
371 1 6.1759971976177388e+00 6.4254698136877018e+00 1.3113445951765231e+01 5 0 0
495 2 4.6699405120387274e+00 8.6537280785191211e+00 1.4411633844618652e+01 -5 4 0
205 1 4.0075010177579458e+00 1.0701346430199804e+01 1.3469020058025706e+01 2 9 0
372 2 5.9791938530996571e+00 5.6071669765571652e+00 1.3689303295670463e+01 5 0 0
218 1 3.6727861526001728e+00 7.4728695970274170e+00 9.8304874370233399e+00 0 -1 0
377 1 5.0727530296010483e+00 1.0448486100944399e+01 9.7674155065021537e+00 0 -1 0
493 1 5.2457027987297540e+00 9.1100976036460342e+00 1.5085198961429846e+01 -5 4 0
201 2 6.5564801397349459e+00 9.6484850694156190e+00 1.6215572534127201e+01 -1 10 0
199 1 6.8496644218024878e+00 9.1067171681003671e+00 1.6908179511507633e+01 -1 10 0
268 1 4.8980962803374624e+00 6.2034751758137352e+00 1.6528727536999952e+01 4 -2 0
200 1 6.3108874625653177e+00 1.0495957241519550e+01 1.6716674098518254e+01 -1 10 0
239 1 4.0537339469074185e+00 8.5633624501783423e+00 1.8118564300354766e+01 -4 -2 0
270 2 5.7914007695269953e+00 5.8584576500381909e+00 1.6433256586012099e+01 4 -2 0
494 1 3.7608436585689273e+00 8.5730132884550745e+00 1.4732408496102328e+01 -5 4 0
269 1 5.9585894869134695e+00 5.8965591178302743e+00 1.5480127576882907e+01 4 -2 0
238 1 3.7493195723379467e+00 1.0035128391963870e+01 1.8298466848951541e+01 -4 -2 0
497 1 4.1881607255172506e+00 9.0062255917112353e+00 2.1829401685056681e+01 -2 2 0
164 1 6.4590240912713721e+00 7.7921808306767888e+00 2.0337412299041581e+01 3 -6 0
496 1 4.2747823180139406e+00 7.9669248970909505e+00 2.0842479342748657e+01 -2 2 0
413 1 6.9052069393516042e+00 1.0449292494524252e+01 2.3623143414852532e+01 3 -9 0
498 2 3.5473500377702267e+00 8.5113833931673977e+00 2.1210678681565962e+01 -2 2 0
227 1 4.3133422657300136e+00 6.2908036797052018e+00 2.4141277295952033e+01 4 -5 0
165 2 5.6124726410619319e+00 7.5089229725105291e+00 1.9965050632967063e+01 3 -6 0
163 1 5.8767130465228030e+00 6.5741344865270195e+00 1.9758374172301195e+01 3 -6 0
448 1 5.0643225382355714e+00 6.8572100141063865e+00 2.7053601900947548e+01 4 0 0
449 1 5.5792408649490151e+00 8.2062368583927086e+00 2.7576559456296376e+01 4 0 0
294 2 4.0933430361635530e+00 8.2200872836442969e+00 2.4226602769301628e+01 12 4 0
293 1 4.6069215159168930e+00 8.3373883500088031e+00 2.5021902389852290e+01 12 4 0
450 2 4.9221153428059701e+00 7.8497082241070899e+00 2.6941061513521017e+01 4 0 0
453 2 6.8820693934181989e+00 7.6999910681577246e+00 2.8916133091328234e+01 -9 2 0
431 1 6.8528731416150528e+00 1.0922137917460722e+01 2.7183664261747641e+01 -3 4 0
126 2 4.1899403808818771e+00 1.0722758795630874e+01 3.3861144301295312e+01 0 -1 -1
419 1 5.0596687362070707e+00 8.8099668032294112e+00 3.3462062809519338e+01 0 0 0
331 1 6.5651323494117051e+00 1.0421307564617772e+01 3.0417407633776879e+01 -6 2 0
203 1 4.0564207630369618e+00 1.0499314104975051e+01 3.0730608756477526e+01 -5 5 0
480 2 6.6084444440244194e+00 6.2887787014544010e+00 3.2802931065451730e+01 -1 -1 0
418 1 6.2442372037096989e+00 5.7010884903400578e+00 3.2138115860086195e+01 0 0 0
499 1 6.7015796027080521e+00 7.8818006203201891e+00 3.2714561418690039e+01 -1 -1 0
451 1 6.4008819627327203e+00 7.1375228699965856e+00 2.9567439882590975e+01 -9 2 0
56 3 1.0003101493555540e+01 4.7326246836728219e+00 3.2803066908709910e+00 -1 -1 0
12 2 8.5729494205204926e+00 3.7794051646777147e+00 2.5638216352117968e+00 -1 -1 0
1 3 7.8774879344888236e+00 3.7227318866732952e+00 7.2690214684336663e-01 -1 -1 0
34 2 9.2524350069034167e+00 9.4155341360432199e-01 2.4259750131809183e+00 -1 0 0
74 3 1.0016753506377755e+01 1.1476610967144416e+00 8.8068586689724371e-01 -1 0 0
7 3 7.6891957495819439e+00 2.2074310111028796e+00 3.4005092886242223e+00 -1 -1 0
6 2 8.6440327801407495e+00 5.3499687313008213e+00 1.1000829198461858e-01 -1 -1 0
4 2 9.3073364867212884e+00 2.5422444058355342e+00 8.9531344588191543e-03 -1 -1 0
22 2 9.3151168276587359e+00 3.3367392639891778e+00 7.5702421265093429e+00 -1 -1 0
37 3 7.7805207193664412e+00 7.3641054371919279e-01 5.9551473894734483e+00 -1 0 0
62 3 1.0003610021363427e+01 3.3913207774810661e+00 5.9474348707705467e+00 -1 -1 0
18 2 8.6519138127673099e+00 2.1905874514239141e+00 5.0601676300957203e+00 -1 -1 0
92 3 1.0294032345035511e+01 1.5233082877474233e+00 8.2727628067448666e+00 -1 0 0
48 2 8.7810424615684450e+00 5.5932805690007459e-01 7.5612671177091615e+00 -1 0 0
19 3 7.7632275158958093e+00 4.5535877430602625e+00 8.2656022108461915e+00 -1 -1 0
16 2 9.3421426336855564e+00 4.8614089628008728e+00 5.0035542067859158e+00 -1 -1 0
437 1 7.6388477411120830e+00 2.3175612018533056e+00 9.4637011540085343e+00 -1 0 0
382 1 9.7419760447586992e+00 1.9513246524256942e+00 1.0834783331920560e+01 -1 -1 0
300 2 9.3906723221202881e+00 1.6753340840293067e+00 9.9999598902149653e+00 -1 -1 0
154 1 8.2569534255331956e+00 3.9216255280148515e+00 1.1710943109564663e+01 3 0 0
155 1 8.2703187573931682e+00 3.2799526537603030e+00 1.3177375211823589e+01 3 0 0
156 2 7.8522658269916930e+00 3.9482870387325066e+00 1.2630388516650473e+01 3 0 0
438 2 9.0029437589723091e+00 4.6300674373133806e+00 1.0050034953038978e+01 -1 -1 0
320 1 9.1278106077989900e+00 1.1786900730727373e-01 1.0100016854760012e+01 -1 0 0
383 1 9.8815991306629449e+00 4.4209502490863333e+00 9.7396530976048066e+00 -1 0 0
422 1 9.8523091365373254e+00 1.0855813353913442e+00 1.9030608304159248e+01 -2 -4 0
191 1 8.2652057095887628e+00 2.4799401630421736e+00 1.6720034713724441e+01 4 10 0
192 2 8.1699677082520896e+00 2.1962006099328977e+00 1.7672749773343167e+01 4 10 0
389 1 9.1838204255625850e+00 4.7336191856194665e+00 1.9222069417838910e+01 -4 6 0
214 1 8.5062499037137655e+00 1.2843541178571385e+00 1.4768197617092717e+01 6 -7 0
216 2 8.5178353833387952e+00 2.2485536472015988e+00 1.4702251283991501e+01 6 -7 0
215 1 9.4649045321466030e+00 2.5083838931491886e+00 1.4838344856726353e+01 6 -7 0
388 1 8.6627244632064855e+00 3.3010535729361075e+00 1.9092663950389070e+01 -4 6 0
190 1 7.3225023639907914e+00 1.8035917960366268e+00 1.7602936962867336e+01 4 10 0
505 1 7.0486269679873219e+00 4.4162305881569814e+00 1.9572167553959883e+01 7 12 0
390 2 8.7388791527466960e+00 4.0501190614168028e+00 1.9739206937872723e+01 -4 6 0
352 1 8.4746240844738843e+00 4.6575894209182858e+00 2.1887387855705928e+01 -1 5 0
259 1 8.8426669994403966e+00 1.8689935545459366e+00 2.3883888645307536e+01 -8 9 0
353 1 8.1296798132668950e+00 4.7740462487659077e+00 2.3452709501698781e+01 -1 5 0
172 1 1.0282235863164098e+01 4.7518006322764723e+00 2.3507995856750245e+01 -3 7 0
354 2 8.7904716155037175e+00 4.9229246600061156e+00 2.2787944266871570e+01 -1 5 0
275 1 7.3915812516914619e+00 3.0762451911549347e+00 2.7380819483725052e+01 3 -4 0
260 1 7.7208604112817074e+00 2.7482799778936320e+00 2.4480297267408872e+01 -8 9 0
518 1 9.8767576750618957e+00 3.2519354281011719e+00 2.6843802130684406e+01 -2 -6 0
276 2 7.9411997569345036e+00 3.8591187651949608e+00 2.6939705908890936e+01 3 -4 0
274 1 7.9247598172125873e+00 4.6294234003317767e+00 2.7542030529737907e+01 3 -4 0
261 2 8.1845384724493311e+00 1.9111760154019435e+00 2.4607700969153779e+01 -8 9 0
148 1 7.0881157706403553e+00 4.2120530892041268e+00 2.5512782253812322e+01 4 -9 0
397 1 7.7271598968286490e+00 3.4090977457144040e+00 3.1666201127813093e+01 4 4 0
398 1 8.9817616565178913e+00 2.9174832852461532e+00 3.1025668797662245e+01 4 4 0
399 2 8.3515659217799119e+00 3.5814028072644892e+00 3.0911905989991727e+01 4 4 0
424 1 9.2122905207467909e+00 4.8459640300811708e+00 3.1111338616953500e+01 -7 3 0
211 1 7.6524249070686636e+00 4.7614948576867439e-01 3.3330211098456864e+01 -1 0 0
284 1 7.3751770264295899e+00 2.1439168744422266e+00 2.9081267846549725e+01 1 14 0
426 2 1.0079825586422828e+01 5.4106016380973259e+00 3.0899536748296200e+01 -7 3 0
527 1 1.0431175882634363e+01 3.2584599601527122e+00 3.3257980751684066e+01 -1 0 0
479 1 6.9988799290862866e+00 1.8064775558209720e+00 3.2849456749759817e+01 -1 0 0
80 3 1.0140249939943983e+01 1.0390195117358500e+01 3.4018472997167546e+00 -1 -1 0
10 2 9.1446230500075014e+00 6.4509930876272481e+00 2.6761989973781670e+00 -1 -1 0
25 3 7.9412316088249515e+00 9.4266690934952404e+00 7.2677252478966647e-01 -1 -1 0
36 2 8.6251385103418432e+00 9.4320573074661898e+00 2.5715858578726039e+00 -1 -1 0
50 3 9.8501002426307096e+00 6.5674294955016572e+00 8.9856759147362508e-01 -1 -1 0
31 3 7.7428092823048962e+00 7.7170189640197169e+00 3.1643552752786968e+00 -1 -1 0
28 2 9.1693200939881550e+00 8.0277130422564991e+00 2.1430026357781407e-01 -1 -1 0
46 2 9.1694508766050742e+00 8.8745083208372950e+00 7.5027448183304148e+00 -1 -1 0
86 3 9.9979874858085509e+00 8.9303939992855561e+00 5.8202253562961497e+00 -1 -1 0
13 3 7.7313187975092150e+00 6.0765164124183340e+00 5.8237125706301232e+00 -1 -1 0
43 3 7.6191329999891062e+00 9.8753740952137203e+00 8.2334660693860258e+00 -1 -1 0
68 3 1.0403545152209036e+01 7.0308449797696628e+00 8.2426697122789445e+00 -1 -1 0
24 2 8.7811222347990334e+00 5.9547377517400184e+00 7.5015818750066021e+00 -1 -1 0
40 2 9.1069807246392163e+00 1.0353517080462428e+01 4.9577234646123811e+00 -1 -1 0
42 2 8.6840708669759383e+00 7.6224351377886670e+00 4.8995103254932051e+00 -1 -1 0
356 1 8.1695016416997213e+00 1.0123799929761251e+01 1.1637768780462787e+01 4 13 0
321 2 8.9426500412332128e+00 1.0163394807524513e+01 1.0076521497121112e+01 -1 -1 0
175 1 8.4392164029605343e+00 1.0352369625383977e+01 1.3921462240864201e+01 1 0 0
299 1 9.3722860092840374e+00 7.7180383798951402e+00 1.0912704279606949e+01 -1 -1 0
249 2 9.8357247487039654e+00 8.1101655048667638e+00 1.2507938939631540e+01 5 11 0
436 1 7.9890145958580918e+00 7.5296338174813400e+00 9.8760908526327977e+00 -1 -1 0
357 2 7.6070736156564882e+00 1.0207354305131490e+01 1.2447160626985195e+01 4 13 0
247 1 9.5681840839821248e+00 8.1460067627027755e+00 1.3450010041339009e+01 5 11 0
384 2 8.9790272884254456e+00 7.2800755308776832e+00 1.0016354931924575e+01 -1 -1 0
298 1 8.9481506317756310e+00 5.5659855697028764e+00 1.0304533685776612e+01 -1 -1 0
355 1 7.1429835448659720e+00 9.3355869402890850e+00 1.2358403527936520e+01 4 13 0
317 1 8.1237121821511256e+00 6.8451855329755036e+00 1.4383741835048351e+01 9 1 0
248 1 1.0413763474652908e+01 7.3353435369733457e+00 1.2508626107627894e+01 5 11 0
319 1 9.7828904199965745e+00 9.7257024071541984e+00 9.8142734643792657e+00 -1 -1 0
316 1 8.5474809526316005e+00 7.4289997071680913e+00 1.5780394304100493e+01 9 1 0
467 1 8.3596652360180634e+00 6.8092176400990745e+00 1.7852823611437987e+01 -3 2 0
177 2 8.6279480804544217e+00 1.0547470270544808e+01 1.4877286969195639e+01 1 0 0
176 1 7.9653756140592433e+00 9.9524393122300818e+00 1.5371046183543763e+01 1 0 0
468 2 7.6992803633784046e+00 7.3256061893592497e+00 1.7335761727264188e+01 -3 2 0
327 2 9.3315901009106259e+00 6.5368700473809564e+00 1.9024015634942863e+01 -1 4 0
318 2 8.8939528600624449e+00 7.2700707927602641e+00 1.4866255335199542e+01 9 1 0