LAMMPS data file via write_data, version 5 Jun 2019, timestep = 1020000

564 atoms
3 atom types

0.0000000000000000e+00 1.3161440743621954e+01 xlo xhi
0.0000000000000000e+00 8.9076089999999990e+00 ylo yhi
0.0000000000000000e+00 4.8394900000000000e+01 zlo zhi

Masses

1 1
2 16
3 47.86

Atoms # atomic

6 2 2.7370128237428868e+00 5.0071147218817336e-01 2.6098496503471798e+00 3 -1 0
36 2 2.5199507644662571e+00 3.5357473009350548e+00 2.6236316458769040e+00 3 -1 0
94 2 4.7401886772959552e+00 2.0117056788535206e+00 1.2745469839812578e+00 3 -1 0
1 3 2.6276665419401470e+00 1.9651941626856000e+00 1.3757832211820489e+00 3 -1 0
3 2 6.9592716538635169e-01 1.8461999597981864e+00 1.3826106366306423e+00 3 -1 0
92 3 5.8702778894234990e+00 4.4686586803737588e-01 1.4909508936481761e+00 3 -1 0
122 3 6.0098238383125313e+00 3.5334454044419941e+00 1.3325737467767678e+00 3 -1 0
101 2 5.8798279226135106e+00 4.1624939920499343e-01 3.3252900219115591e+00 3 -1 0
131 2 5.9853058289141812e+00 3.5073388865812607e+00 3.3699676941500876e+00 3 -1 0
35 2 2.5622679013966940e+00 3.4394599745564425e+00 1.2362550136608212e-01 3 -1 0
5 2 2.8647953655096603e+00 5.6815390742066063e-01 3.5868241665333755e-02 3 -1 0
9 2 3.9281937802468643e+00 2.0814818034270259e+00 4.5646211586966636e+00 3 -1 0
10 2 1.4310631973877292e+00 2.0374288255231825e+00 4.6041315030920682e+00 3 -1 0
17 2 2.8363716809365531e+00 5.9988667437685894e-01 6.5524983596077719e+00 3 -1 0
38 3 2.6430592926312881e+00 3.5502957652694258e+00 4.6003181459462130e+00 3 -1 0
47 2 2.7025352972257215e+00 3.4285215049988120e+00 6.5575369819694647e+00 3 -1 0
8 3 2.5869452962918693e+00 6.1487772884573444e-01 4.4906644340134125e+00 3 -1 0
97 3 5.8871807749099565e+00 2.1249860389566133e+00 4.6410837456594907e+00 3 -1 0
102 2 6.0354083338068101e+00 5.8753113246518673e-01 5.8827374175486380e+00 3 -1 0
132 2 5.9726950090606472e+00 3.5020864119497861e+00 5.8671538879571834e+00 3 -1 0
13 3 2.6325603006611282e+00 1.9967661751329993e+00 7.8083168465570747e+00 3 -1 0
106 2 4.7107302146149097e+00 1.9974417581065840e+00 8.0543606483193582e+00 3 -1 0
15 2 7.4131171625128622e-01 2.0044157673924103e+00 7.9258986779036293e+00 3 -1 0
48 2 2.8107639416660599e+00 3.6421108756675671e+00 9.1455977885070379e+00 3 -1 0
18 2 2.8215659885566935e+00 5.8419098393881375e-01 9.0606220785041121e+00 3 -1 0
113 2 6.1649836641012232e+00 3.7272912381716944e-01 9.7988216639456223e+00 3 -1 0
104 3 5.9880809904668215e+00 4.6907240989085236e-01 7.7246851939930252e+00 3 -1 0
143 2 5.9896554094406875e+00 3.5086093004769250e+00 9.8519448661967193e+00 3 -1 0
134 3 5.9347145055023454e+00 3.3907476701987407e+00 7.7923641019396932e+00 3 -1 0
59 2 2.6075230774191569e+00 3.6786412287641936e+00 1.2975078398909551e+01 3 -1 0
50 3 2.9308760673221763e+00 3.4054182682365179e+00 1.1094293583397684e+01 3 -1 0
22 2 1.4380906108330380e+00 1.9122912257668312e+00 1.1041160925005475e+01 3 -1 0
21 2 4.0588657090443201e+00 2.0140180120879547e+00 1.0921469492656865e+01 3 -1 0
29 2 2.7319468466890009e+00 5.9627620068908960e-01 1.3000520939198571e+01 3 -1 0
20 3 2.8225880234132243e+00 4.1959087617768021e-01 1.1022173263695562e+01 3 -1 0
114 2 6.0520518213772920e+00 6.0435509748415661e-01 1.2429928852389956e+01 3 -1 0
144 2 6.1729204422117325e+00 3.6255102182389307e+00 1.2338467153481828e+01 3 -1 0
109 3 6.2346620209101777e+00 1.9979549965309396e+00 1.0939513274754505e+01 3 -1 0
27 2 6.4462876824471738e-01 2.1535094041944132e+00 1.4198543124565708e+01 3 -1 0
25 3 2.6555875807336937e+00 1.8861941479958464e+00 1.4474702351260683e+01 3 -1 0
60 2 2.6689718188112583e+00 3.3939776456485822e+00 1.5496512010607704e+01 3 -1 0
118 2 4.7288801420085598e+00 2.0279075531187205e+00 1.4458317969079211e+01 3 -1 0
249 2 5.9419281055863626e+00 6.4105905565579280e-01 1.6660821968171330e+01 4 -1 0
146 3 6.0818294210545254e+00 3.6415163918983042e+00 1.4189376588852241e+01 3 -1 0
513 2 5.8816125106137322e+00 3.5463679083150410e+00 1.6521794563287092e+01 3 -1 0
30 2 2.5987437140129206e+00 5.3522504199028065e-01 1.5593115408231267e+01 3 -1 0
116 3 5.9075396232299999e+00 6.2973746868057789e-01 1.4271779388146488e+01 3 -1 0
538 1 6.1749678966887780e+00 1.5249467117425999e+00 1.6774236996714684e+01 -5 -7 0
235 1 2.4554489033361682e+00 2.5101964436557376e+00 1.8179884161880292e+01 -3 13 0
291 2 5.6830740015093351e-01 2.2113421275662883e+00 1.8882065872473795e+01 -5 8 0
296 1 4.5495578127358609e+00 2.3776647533490896e+00 1.9518018172618472e+01 -13 19 0
521 1 4.8840973341518013e-01 1.2341682381273793e+00 1.8844838883992075e+01 -2 11 0
289 1 1.0047973995167938e+00 2.4402879684936689e+00 1.9704038936672397e+01 -5 8 0
237 2 3.3960444667491818e+00 2.7183542687323046e+00 1.8255566174808571e+01 -3 13 0
405 2 5.3252575550633958e+00 2.1947943352718458e+00 2.0159865305587417e+01 -14 15 0
503 1 6.0819904875694828e+00 3.8826396092628541e+00 1.9743245140762113e+01 -10 -9 0
404 1 5.8857953844091000e+00 1.4554549474546823e+00 1.9795277970372798e+01 -14 15 0
382 1 3.7000538294337737e+00 3.0622782103676789e+00 1.7407176987077190e+01 -4 16 0
512 1 3.2208451943081493e+00 1.7626037662933645e+00 2.4179784591475098e+01 -6 13 -1
353 1 5.0399360188749132e+00 1.4258428807964638e+00 2.2358969053172220e+01 1 11 0
446 1 4.2234333569885214e+00 1.8187169402569350e-01 2.2728724759938540e+01 2 4 0
325 1 1.6451607455360731e+00 2.2906363988424912e+00 2.1850066409047965e+01 -18 15 0
354 2 4.1378152508050912e+00 1.1171950625947646e+00 2.2574366850299725e+01 1 11 0
251 1 3.1070372777153277e+00 2.4474233617374188e+00 2.1813146900915982e+01 -12 -8 0
195 2 2.3284147027014614e+00 2.9489729517233187e+00 2.1518636082245983e+01 -15 -6 0
445 1 2.8202189736296961e+00 2.7699223771836574e+00 2.5361150412171622e+01 -10 17 0
239 1 3.6972434136537315e+00 8.6151131638174017e-01 2.6373048421291248e+01 -7 7 0
447 2 2.6442460901104354e+00 1.8468445248861931e+00 2.4954136438578395e+01 -10 17 0
444 2 2.8440814721179075e+00 4.2638232109871543e+00 2.6073406238500468e+01 -13 -12 0
398 1 9.0523965463469669e-01 2.5798265813112016e+00 2.4989580024858991e+01 -10 3 0
301 1 2.8823775560252232e+00 4.1161660395887187e+00 2.7033370215718858e+01 -6 1 0
561 2 4.2542729156041448e+00 4.1522018799297944e-01 2.6997388928732466e+01 -9 -4 0
485 1 5.7368306651781440e+00 7.7455455103130044e-01 2.6131891416152957e+01 -8 2 0
498 2 1.4369821507227931e-01 3.1398623480345380e+00 2.5194746925515528e+01 -19 3 0
541 1 2.7075380680818406e-01 3.1592212539051805e+00 2.6153186745635825e+01 -10 5 0
413 1 1.5659045564782956e+00 3.8802008661228360e-01 2.5662139090872611e+01 -3 19 0
500 1 6.4354026750883042e+00 3.1254059876690161e+00 2.6626402437408309e+01 -17 6 0
524 1 2.5932518004283978e-02 2.2708357556090794e-01 2.6137433019657319e+01 -13 13 0
540 2 5.4077130578477588e+00 1.2703185057719857e+00 2.9361572700454133e+01 -9 -5 0
357 2 2.3225210027580130e+00 1.3484754142945112e+00 2.9892842456377885e+01 -4 2 0
520 1 4.9073154565915420e+00 8.6845505325517958e-01 2.8557088143976195e+01 -3 13 0
443 1 1.9773113212505578e+00 1.1525839588506206e+00 3.0817869542302780e+01 -13 -5 0
191 1 3.2778058047661820e+00 1.2677188764226888e+00 3.0018994534218734e+01 -7 -8 0
539 1 6.0076706814089142e+00 5.5058123183362961e-01 2.9475535541598042e+01 -9 -5 0
358 1 9.2687556827787199e-01 2.2814713116281848e+00 2.8492140322579413e+01 -6 14 0
268 1 5.3801887076701096e+00 2.2246807334350938e+00 3.0760972942594623e+01 -1 -3 0
360 2 2.3195427013167563e-01 2.2235528028942948e+00 2.7821233021864746e+01 -6 14 0
287 1 6.2373626165063829e+00 2.8153993913755304e+00 2.8077655929664594e+01 -4 -5 0
438 2 5.2898582194316655e+00 2.6767706329220449e+00 3.1689118785693474e+01 -5 -4 0
437 1 5.8232073422059196e+00 3.4920395366161503e+00 3.1574936421887863e+01 -5 -3 0
394 1 3.7350121152923617e+00 3.6767531665521105e+00 3.2200847028352790e+01 -1 -3 0
466 1 2.1832790044105317e+00 3.4819637681725459e+00 3.1968042591765048e+01 -5 0 0
273 2 5.5374479969460619e+00 2.8605156642238833e-01 3.3615476499715761e+01 -7 8 0
336 2 1.2297382263680987e+00 1.1335005359379546e+00 3.2387171098713161e+01 -6 10 0
457 1 5.4912691757185117e+00 1.1240980713576503e+00 3.3116104315290329e+01 -13 12 0
468 2 2.8941899527096990e+00 4.1039546766272021e+00 3.2010795234157868e+01 -5 0 0
367 1 1.7013166783512819e+00 2.3752105202715282e-01 3.2393435227427439e+01 -5 3 0
314 1 2.9066266777743910e-01 9.6346929214610044e-01 3.2327611635158512e+01 -5 3 0
461 1 5.9532604461316092e+00 3.7904487655874181e-01 3.5546228685102037e+01 -8 14 0
272 1 2.2880957253976799e+00 1.8923583720012798e+00 3.5426172845010029e+01 -8 -10 0
189 2 5.3871862337748126e+00 3.0791945869930815e+00 3.6868362810595443e+01 -2 4 0
245 1 2.0943041734387196e+00 2.1684467664810407e+00 3.7889345684907127e+01 -11 -6 0
187 1 5.5822193126578901e+00 2.1498794338391511e+00 3.6566140408768675e+01 -2 4 0
527 1 8.6290660015469911e-01 2.1937607888237824e+00 3.5883432856563282e+01 -3 -9 0
210 2 1.7486244564119631e+00 2.4628917443090041e+00 3.6039581964308304e+01 -1 -7 0
192 2 5.9197269106994757e+00 2.5749929542021349e-01 3.6503740029050739e+01 -6 2 0
188 1 4.9036876876238287e+00 2.9299032140872758e+00 3.7696551933831770e+01 -2 4 0
450 2 4.3215813837550181e+00 2.4197312641925664e-01 3.9167494595817182e+01 -9 1 0
504 2 1.9723089303895589e+00 2.4383953553969393e+00 3.8780490133306323e+01 -13 -10 0
372 2 4.3781240070811069e+00 2.7557748133067097e+00 3.9743494789710908e+01 -5 7 0
250 1 4.8442166289412567e+00 1.9043534055909959e+00 3.9893363312870243e+01 -4 -3 0
370 1 5.0124564593847829e+00 3.4326950425225848e+00 3.9801255868944530e+01 -5 7 0
233 1 2.8522429321459315e+00 2.6224748942908382e+00 3.9108536635491745e+01 -7 6 0
557 1 3.9173082973817239e+00 4.2041295822622538e-01 3.8369124141069790e+01 -15 2 0
368 1 3.7347195202066585e-01 2.0896533515025610e+00 3.9623687366125296e+01 -1 7 0
553 1 3.9255686882027923e+00 2.5477702153180051e+00 4.1916169877512445e+01 -1 12 0
225 2 3.5476096491163482e+00 2.8008987801318876e+00 4.2786275439997240e+01 -3 -2 0
265 1 4.1406215102495612e+00 2.2796876511117476e+00 4.3306769184347296e+01 3 -5 0
411 2 8.0780552700587149e-01 1.1413426191230651e+00 4.3380481031936490e+01 -4 14 0
352 1 2.5305942055108552e+00 3.9042412864615752e+00 4.3743197412257103e+01 -7 8 0
469 1 1.1456770374011842e+00 1.2107915743247677e+00 4.2539565301502051e+01 -3 10 0
217 1 1.5704785921026858e+00 7.7422138358944625e-01 4.3889264230736430e+01 -10 5 0
246 2 5.7667928247583244e+00 1.6858521583490689e+00 4.3951412468439202e+01 -14 -11 0
244 1 6.0053605133377177e+00 8.1140498861617572e-01 4.4244312305926684e+01 -14 -11 0
335 1 6.3162031102228609e+00 2.2936225577885998e+00 4.4490557618275005e+01 -8 13 0
529 1 4.2660883182145160e-01 4.2420759560597228e+00 4.2067768559771629e+01 -12 -7 0
424 1 2.8367563962776945e+00 4.1867933235296417e-01 4.5626040436775497e+01 -3 1 0
550 1 5.0139993817589428e+00 3.4439251416104741e+00 4.7400770883770235e+01 -17 -6 0
393 2 3.2275534136501083e+00 2.2152785693121184e+00 4.6088171305328807e+01 -10 7 0
518 1 2.7953333669305978e+00 2.6820714645044603e+00 4.6806611971400464e+01 -14 7 0
302 1 5.8370316530613939e+00 1.6266881320914728e+00 4.7445657416344204e+01 8 1 0
257 1 6.2281604827222470e-01 3.9819750346124588e-01 4.7201681056175829e+01 5 -7 0
552 2 5.7642779583431718e+00 6.4065931758083705e-01 4.7536335489460278e+01 -17 -5 0
510 2 5.8714302236119833e+00 3.2694830307165299e+00 4.7758414120842907e+01 3 -1 0
533 1 3.5023266852558397e+00 5.3384854935993709e-01 4.7742258711245597e+01 -7 2 0
470 1 3.9486300754741355e+00 2.8489507785745896e+00 4.5847812722097295e+01 -8 3 0
379 1 6.4254447378479407e+00 3.4552782623002715e-01 4.6892293272094960e+01 -4 -5 0
154 2 4.7490136048624310e+00 7.9031599465805300e+00 1.2950984107789063e+00 3 -1 0
61 3 2.7119533392314525e+00 7.8044260141726935e+00 1.3469445385666292e+00 3 -1 0
63 2 6.5417025609720958e-01 7.9270258088672589e+00 1.4621787136421891e+00 3 -1 0
124 2 4.6986156392299581e+00 4.9889110338309557e+00 1.2590141314199255e+00 3 -1 0
66 2 2.8221764042014135e+00 6.6857422989953683e+00 2.7034582630114299e+00 3 -1 0
31 3 2.6790238887689752e+00 4.8373431444003581e+00 1.2597812783743270e+00 3 -1 0
33 2 7.0620816506245099e-01 5.0206203249602641e+00 1.4185819633750019e+00 3 -1 0
152 3 6.0209823748839186e+00 6.3682121118574768e+00 1.4537892972988380e+00 3 -1 0
161 2 5.9795176935135430e+00 6.4282472270221849e+00 3.3599193358448867e+00 3 -1 0
65 2 2.5961302416920597e+00 6.3135638532903338e+00 1.0319037160584171e-01 3 -1 0
39 2 4.0583396711632451e+00 4.9927424144827155e+00 4.5830156748420672e+00 3 -1 0
68 3 2.9246203194372571e+00 6.5717933207164556e+00 4.6512776369357827e+00 3 -1 0
70 2 1.4754352935526200e+00 8.0605837905898756e+00 4.6408954599048320e+00 3 -1 0
77 2 2.6414811978138464e+00 6.5311487438727296e+00 6.5347118414073648e+00 3 -1 0
69 2 4.1492551515958525e+00 8.0064754297072902e+00 4.6959431306790300e+00 3 -1 0
40 2 1.5141198427699267e+00 5.0504386144856905e+00 4.5690211394950824e+00 3 -1 0
162 2 6.1814370851213951e+00 6.5232164996633157e+00 5.7982295740322023e+00 3 -1 0
127 3 6.0575019578098148e+00 5.0698748657869350e+00 4.5805832971484834e+00 3 -1 0
157 3 6.0806981482061362e+00 8.0190943393818301e+00 4.6929052161956726e+00 3 -1 0
75 2 7.7346782983878837e-01 8.0277613318016439e+00 7.6871029669501407e+00 3 -1 0
73 3 2.6407557967529773e+00 7.9636588344742441e+00 7.8378966224033588e+00 3 -1 0
78 2 2.6926186211596650e+00 6.6027407905366502e+00 9.0305270681895990e+00 3 -1 0
166 2 4.8837629253052341e+00 7.9136254304845997e+00 7.8961972653720469e+00 3 -1 0
136 2 4.8020438668733361e+00 5.1522782991694154e+00 7.7507001604044019e+00 3 -1 0
45 2 7.2395580162534923e-01 4.8954712639195357e+00 7.7536921915863024e+00 3 -1 0
43 3 2.8993960115065627e+00 5.0155636487413222e+00 7.9209788043414218e+00 3 -1 0
164 3 6.1596451802536958e+00 6.5402837764293889e+00 7.9111429909423050e+00 3 -1 0
173 2 6.2179887929509556e+00 6.5083080461237657e+00 9.8677495591610960e+00 3 -1 0
89 2 2.6193025879844525e+00 6.4742082701502772e+00 1.3099438225057156e+01 3 -1 0
51 2 3.9714720093820612e+00 4.9324174704217887e+00 1.1087454921840390e+01 3 -1 0
81 2 3.9945855020592047e+00 7.8327925055657577e+00 1.1175307719392524e+01 3 -1 0
82 2 1.4362458751369518e+00 8.0585085923224504e+00 1.0983626630582284e+01 3 -1 0
80 3 2.6458371189342320e+00 6.5360407553512294e+00 1.1239856291137070e+01 3 -1 0
52 2 1.4529816314132185e+00 4.9191082798474186e+00 1.0999909908669450e+01 3 -1 0
139 3 5.9363100439526786e+00 5.0570799183166066e+00 1.1230310804252653e+01 3 -1 0
174 2 6.0647131548024023e+00 6.4576709834027524e+00 1.2448527516661130e+01 3 -1 0
169 3 6.1122566720162901e+00 7.9181583964626174e+00 1.1134572088034602e+01 3 -1 0
85 3 2.7134622990498203e+00 7.8598435156138988e+00 1.4482623996714425e+01 3 -1 0
148 2 4.7072685640960410e+00 4.8442659110244710e+00 1.4438141109569568e+01 3 -1 0
90 2 2.7278829621110359e+00 6.4958865580111942e+00 1.5563285452683747e+01 3 -1 0
178 2 4.7548677555442280e+00 8.0720652333046274e+00 1.4417423450610332e+01 3 -1 0
87 2 7.2543464182045592e-01 8.0437091252591575e+00 1.4363614109834229e+01 3 -1 0
55 3 2.8043106445743473e+00 4.8591872351526488e+00 1.4408007092500464e+01 3 -1 0
397 1 5.2859865760536948e+00 6.8186103902732045e+00 1.6957864354559305e+01 3 0 0
385 1 5.1535492842762021e-01 6.2338839847565106e+00 1.6690573819975789e+01 3 0 0
57 2 6.2946749058263252e-01 4.9418497497947218e+00 1.4400601243576299e+01 3 -1 0
176 3 6.1305182844356310e+00 6.5694496206210404e+00 1.4587270313041158e+01 3 -1 0
399 2 5.9727733592577144e+00 6.2968982569126437e+00 1.6498990119500590e+01 3 -1 0
511 1 5.6524956884474067e+00 4.5454887404899793e+00 1.6660021118706457e+01 3 -1 0
304 1 2.3118111828717558e-01 7.7983674858494743e+00 1.9553028071821423e+01 -7 10 0
475 1 1.7496540413110786e+00 8.3366714724931796e+00 1.9293326127747122e+01 -9 3 0
501 2 2.7929840598583535e+00 5.4436702138097477e+00 1.9220872538399771e+01 -9 16 0
307 1 4.4851166069429267e+00 8.3777379096644289e+00 1.8510401181845406e+01 -11 2 0
417 2 7.8706226044095495e-01 8.3382781877572114e+00 1.8975616640544935e+01 -8 8 0
211 1 3.0813990137397793e+00 4.5144794548514975e+00 1.8970038933564446e+01 5 6 0
499 1 2.8001475662085982e+00 5.9459708995367189e+00 1.8364798490383308e+01 -9 16 0
243 2 3.5558801586806306e+00 8.1489676904685311e+00 1.8397284317380677e+01 -4 -9 0
290 1 7.0642929929741960e-01 5.2163218896266912e+00 1.9546088994866327e+01 -6 1 0
362 1 6.3299594743048413e+00 5.2302728241446479e+00 2.0420779668285903e+01 -6 -6 0
363 2 6.4968232902795471e+00 4.7894171966718080e+00 1.9565506015584383e+01 -6 -6 0
242 1 3.3859475410225821e+00 8.8213350403016619e+00 1.7717687701042369e+01 -4 -9 0
497 1 6.5258941818438085e+00 8.3275208892821500e+00 2.0251700698749758e+01 -11 3 0
508 1 3.2103184701306535e+00 6.5026562893600710e+00 2.2977884891999295e+01 -8 21 0
525 2 5.2781330682429149e-02 7.4650075968237939e+00 2.1449770347896091e+01 -10 17 0
350 1 2.4158041864764122e+00 4.4916838692958434e+00 2.1980372854320567e+01 -7 2 0
297 2 3.9521162477553911e+00 7.0506699817034129e+00 2.3278775411034818e+01 -6 5 0
392 1 2.1180810469961089e-01 8.4490206587626915e+00 2.1549316738014781e+01 -3 10 0
449 1 9.3295781457346039e-01 7.0475291178523358e+00 2.1567982370562557e+01 -8 4 0
267 2 2.0075134183272829e+00 5.3887127380751947e+00 2.2162348418483521e+01 -12 5 0
292 1 5.7436482741113375e+00 6.5515521945332971e+00 2.2651349659387382e+01 -3 1 0
305 1 1.1254231353333093e+00 5.2343530759275136e+00 2.2487300349305180e+01 0 2 0
383 1 1.9693745834333998e+00 4.7008456977372086e+00 2.5800046882281958e+01 -11 5 0
365 1 4.1679285361136751e+00 5.9889120960043574e+00 2.6160456287360077e+01 -3 15 0
406 1 4.4990361216409123e-03 5.8037326889394558e+00 2.6314896273753639e+01 -13 2 0
414 2 7.3492748347866554e-01 6.0039061822288122e+00 2.5709999716695808e+01 0 8 0
271 1 8.6746751753052054e-01 6.9498273020858168e+00 2.5754846989509215e+01 -4 -4 0
542 1 5.6003949297949838e+00 6.6070406087398741e+00 2.6215969967262048e+01 -6 19 0
366 2 4.6544493802539586e+00 6.8158045336813915e+00 2.6027458519945181e+01 -3 15 0
416 1 4.2463910639628288e+00 8.3301223126195989e+00 2.6943100542901956e+01 3 0 0
252 2 8.0696239085209032e-01 8.6714105176937437e+00 2.5693762105289526e+01 -8 -3 0
422 1 1.8774388923492906e+00 7.2364461193969758e+00 2.7309882682296134e+01 -6 10 1
295 1 4.1480629264893532e+00 6.9882647174978958e+00 2.4212983166813888e+01 -6 5 0
420 2 5.7315786285515667e-02 6.6217959129090422e+00 3.0974724134965463e+01 -2 -16 0
412 1 6.2366849868412197e+00 5.3462310442090004e+00 3.0358976899701847e+01 -5 15 0
200 1 2.8788176449928731e+00 4.5901292924465054e+00 2.9986367819010354e+01 -3 1 0
227 1 6.1014677307463669e+00 4.9365619423298694e+00 2.8273165340755266e+01 -7 20 0
248 1 4.7738878522341803e+00 5.3525059059090072e+00 2.8884095599516908e+01 -4 8 0
326 1 2.0078204875180075e+00 8.2793787581184688e+00 2.8571274980055286e+01 -8 15 0
462 2 5.6859053969659499e+00 5.6812535762759060e+00 2.8711972368329388e+01 -13 15 0
428 1 2.2369666072923371e+00 5.4318520879123806e+00 2.8754727718446034e+01 -2 -6 0
201 2 2.9893262697605172e+00 4.8674187358561340e+00 2.9030124446857727e+01 -3 1 0
426 2 1.7887562141153415e+00 7.3506232878739439e+00 2.8276455022746756e+01 -1 -10 0
419 1 9.0940018015173874e-01 6.9722053729428337e+00 3.0910871331449513e+01 -2 -16 0
194 1 3.7782464400320888e+00 8.2771438066774881e+00 3.2824276616017599e+01 -4 -3 0
440 1 2.5430723356754803e+00 7.2113126475606979e+00 3.3103626151374534e+01 0 11 0
299 1 2.9792849224755016e+00 4.9854750917485440e+00 3.3526239490518947e+01 3 6 0
441 2 2.9073967524122670e+00 7.9324252306651992e+00 3.2538815839764140e+01 0 11 0
402 2 2.9954417666346016e+00 5.3491004253861831e+00 3.4457322825492561e+01 -4 7 0
229 1 6.1413117715149550e+00 8.7578444325864950e+00 3.3057276888537473e+01 -13 13 0
313 1 1.5667584429602854e-01 8.7911448670531911e+00 3.4381667872307425e+01 0 6 0
432 2 2.7802362902192193e+00 7.5996977350145842e+00 3.6122145548651041e+01 -8 -3 0
220 1 1.1648433537147769e+00 7.7118468574690002e+00 3.5005922676202630e+01 -11 7 0
334 1 2.8704010730359348e+00 6.7503523923175877e+00 3.5582838350002966e+01 -3 8 0
319 1 5.1086160945113024e+00 7.4160464967586499e+00 3.6418674493249732e+01 -1 6 0
429 2 5.5382378680560969e+00 6.5475126413641487e+00 3.6679551111476343e+01 -3 7 0
269 1 4.9379276937716634e+00 5.8775959619102993e+00 3.6523237696768270e+01 -2 8 0
339 2 2.8059558418642544e-01 7.8265015450085951e+00 3.4598830065710018e+01 5 9 0
435 2 1.1208185999646365e+00 5.2919070058222042e+00 3.7150119740269588e+01 1 9 0
364 1 2.2240886201736303e+00 7.3667291054380648e+00 3.6860912711675311e+01 -4 0 0
433 1 2.0271026088722779e-01 5.0722994869212545e+00 3.6968509674924910e+01 1 9 0
401 1 2.7264058014315231e+00 4.5642034312359439e+00 3.5019795344688845e+01 -4 7 0
436 1 1.5877705729621900e+00 4.4668579387487055e+00 3.7233211211731813e+01 -2 7 0
465 2 3.3901056829287861e+00 5.9895092425943011e+00 4.1350974847278664e+01 3 2 0
312 2 5.9308037036023862e+00 5.2046534664208775e+00 3.9567973237299256e+01 -3 3 0
389 1 1.2579955964500371e+00 5.8031639124208647e+00 3.8847712170638289e+01 -18 1 0
182 1 2.9505428766343966e-01 6.7375728844891807e+00 3.9614752216767030e+01 -12 1 0
286 1 2.8058616998977592e-01 4.9748010862228789e+00 4.0728023167873381e+01 -1 -13 0
323 1 5.0807234650333921e+00 8.5864375626651626e+00 3.8915484198822789e+01 -8 -2 0
463 1 2.7784877140091493e+00 6.3218280548487442e+00 4.0667475121784989e+01 3 2 0
216 2 1.1008239415682437e+00 6.1981972425869447e+00 3.9715521929522090e+01 -12 -3 0
215 1 4.2054654748648286e+00 5.6876301466651906e+00 4.0909742185460374e+01 -2 -1 0
493 1 6.0104760235871941e+00 5.6818552371840187e+00 3.8698839169820054e+01 -12 23 0
556 1 5.9223237519770455e+00 6.7757940586178798e+00 4.3661893860292395e+01 -9 6 0
483 2 4.5438456217991909e+00 7.6385714986829427e+00 4.3293666018724771e+01 -12 -1 0
481 1 3.9142054282832093e+00 8.1234471461867841e+00 4.3965203077794051e+01 -12 -1 0
231 2 1.9953774431460942e+00 4.7239015350003317e+00 4.3585835017350746e+01 3 -2 0
482 1 3.9962691507101193e+00 7.1573362954826383e+00 4.2557072148885510e+01 -12 -1 0
221 1 2.3971010628572116e+00 4.9232609782832055e+00 4.2726622586319777e+01 0 -5 0
230 1 5.3038594277913242e+00 5.2886737392226406e+00 4.4624162397439243e+01 -5 -3 0
253 1 1.7448011868332904e+00 5.7796719656537769e+00 4.4772976258065619e+01 -5 0 0
218 1 5.7956355964794515e+00 5.9499425453572998e+00 4.6974558654715239e+01 -3 -7 0
219 2 4.5654184521693475e+00 5.0079659631384459e+00 4.5222473600114867e+01 -10 -13 0
255 2 1.6741891321343125e+00 6.2858073377040684e+00 4.5654494736525358e+01 -5 0 0
355 1 2.7194143297850110e-01 6.0134068412831585e+00 4.6979631830058878e+01 -4 -1 0
361 1 2.1953525967871768e+00 5.9985290106920610e+00 4.6402547130466552e+01 -4 0 0
345 2 6.3551334820985446e+00 6.4010083885004860e+00 4.7686084456872251e+01 3 -1 0
396 2 2.5098998572528681e+00 8.6752984752331237e+00 4.5036469170993755e+01 1 2 0
454 1 2.3461080853091958e+00 7.7949329508761904e+00 4.5472865904946460e+01 -1 -8 0
374 1 3.9572719982526530e+00 5.7324933380979957e+00 4.5038421648221465e+01 -14 -11 0
91 3 9.0423132234566719e+00 1.9573312207407980e+00 1.2699572350922876e+00 3 -1 0
126 2 9.4374524811999674e+00 3.4923210167134844e+00 2.5476520153888251e+00 3 -1 0
93 2 7.2376434989179366e+00 1.8998858070634506e+00 1.3198830552721177e+00 3 -1 0
4 2 1.1393969189985430e+01 1.9848012327260318e+00 1.1966510662894665e+00 2 -1 0
96 2 9.4835411377837513e+00 5.1456294455872953e-01 2.5583242184680790e+00 3 -1 0
41 2 1.2596919842372074e+01 3.4183471395174503e+00 3.3418024989383261e+00 2 -1 0
11 2 1.2475593907623034e+01 4.8886854148732684e-01 3.2372210283055400e+00 2 -1 0
2 3 1.2457859805618913e+01 4.5938106306403881e-01 1.0291296609785863e+00 2 -1 0
32 3 1.2708231177743494e+01 3.3767720268945633e+00 1.5741267473656799e+00 2 -1 0
95 2 9.1512509193142151e+00 4.4971310783611157e-01 2.5503461293384867e-02 3 -1 0
125 2 9.3450523824522822e+00 3.3850440416271605e+00 8.7853818218878357e-03 3 -1 0
99 2 1.0592174588535046e+01 2.0622116899875902e+00 4.6104004251304129e+00 3 -1 0
107 2 9.3193611025342111e+00 5.8789808737034988e-01 6.6218531661766802e+00 3 -1 0
128 3 9.2259093621636037e+00 3.4284601260471614e+00 4.6079889679670503e+00 3 -1 0
137 2 9.4639238813373918e+00 3.4002629548393402e+00 6.5130895515173624e+00 3 -1 0
100 2 7.9642065147351992e+00 2.1214757042299079e+00 4.4272423854620708e+00 3 -1 0
98 3 9.3348848884410973e+00 4.6069770437480517e-01 4.4070408448939089e+00 3 -1 0
7 3 1.2487224547282240e+01 1.8629407189227383e+00 4.5538621367462051e+00 2 -1 0
42 2 1.2721846858399289e+01 3.3875055091613548e+00 5.8096667214376856e+00 2 -1 0
12 2 1.2537835616721175e+01 4.6912698024677718e-01 5.8540049379340955e+00 2 -1 0
105 2 7.2569082440082520e+00 2.0002460685753061e+00 7.8439848951200579e+00 3 -1 0
108 2 9.2762060140544023e+00 3.9520728060695359e-01 9.1749753937863829e+00 3 -1 0
138 2 9.3071236207915611e+00 3.5138523474942955e+00 9.0648551731607618e+00 3 -1 0
16 2 1.1316661654323326e+01 1.9695970245244199e+00 7.8464417775386526e+00 2 -1 0
103 3 9.3046166298949426e+00 2.0437646645311638e+00 7.8077439526057315e+00 3 -1 0
14 3 1.2469136125478791e+01 4.9774006557246064e-01 7.7361138850812665e+00 2 -1 0
23 2 1.2493544029852581e+01 4.5410177252654099e-01 9.7871309648031097e+00 2 -1 0
44 3 1.2643005866845355e+01 3.5255784599575763e+00 7.8568732155432839e+00 2 -1 0
53 2 1.2604325838400451e+01 3.5436701190307591e+00 9.8484802868648913e+00 2 -1 0
112 2 8.0546153091792050e+00 2.0719107967574817e+00 1.1026522069053922e+01 3 -1 0
110 3 9.1915542611444394e+00 5.2908966904696020e-01 1.1188901596028710e+01 3 -1 0
149 2 9.4683829121589937e+00 3.3476054965231290e+00 1.3033784637052992e+01 3 -1 0
140 3 9.5568081706549002e+00 3.4011834121057540e+00 1.1238745483742672e+01 3 -1 0
111 2 1.0556245873788727e+01 1.9063517335251274e+00 1.0932400919195000e+01 3 -1 0
119 2 9.2316396545524473e+00 5.1994240924718194e-01 1.3106933080605605e+01 3 -1 0
24 2 1.2438460335942427e+01 5.5436685939761088e-01 1.2307176306423413e+01 2 -1 0
54 2 1.2591526744976912e+01 3.4696208598252580e+00 1.2267058559023146e+01 2 -1 0
19 3 1.2764368302376974e+01 1.9464139837855192e+00 1.0927070422533562e+01 2 -1 0
496 1 1.2024972862278389e+01 9.2254068612952178e-01 1.6979257578974348e+01 -6 -3 0
120 2 9.3584007402595635e+00 5.1043114336630646e-01 1.5601003716129123e+01 3 -1 0
117 2 7.4033150870698305e+00 2.1791727865330937e+00 1.4461438806999842e+01 3 -1 0
150 2 9.2844715109274905e+00 3.5795286836305915e+00 1.5665963275588366e+01 3 -1 0
115 3 9.2882607549042699e+00 2.0953257798067870e+00 1.4533374350954162e+01 3 -1 0
28 2 1.1314016896585740e+01 1.9199927236211540e+00 1.4573489416594247e+01 2 -1 0
507 2 1.2407859875849024e+01 3.3743822746790246e+00 1.6425405306621851e+01 2 -1 0
514 1 1.1601311514117805e+01 3.5485733914340667e+00 1.6902426774110697e+01 1 1 0
526 1 6.7357683300703357e+00 9.6399450420677643e-02 1.6909137291533625e+01 -10 5 0
26 3 1.2653759142055096e+01 5.7982722623563721e-01 1.4258802970570287e+01 2 -1 0
56 3 1.2512337436352549e+01 3.4507269143264989e+00 1.4263222323597830e+01 2 -1 0
516 2 1.2715062983875297e+01 5.0639615027431306e-01 1.6380967732586370e+01 1 0 0
329 1 6.6545415172234970e+00 3.3808471209360822e+00 1.7167618989116004e+01 -10 -4 0
373 1 1.3093215260109995e+01 3.0815123022814519e+00 1.7008221938276233e+01 -8 -10 0
308 1 8.4194994374319734e+00 3.1805231750344292e+00 1.7242204765776997e+01 -20 2 0
309 2 8.1265620422725515e+00 2.6041753542258568e+00 1.8036297036510764e+01 -20 2 0
330 2 6.9973482167778265e+00 1.8173020710213819e-01 1.9811646757582913e+01 -15 1 0
247 1 1.1765257163090864e+01 3.5811957649549750e+00 2.0110253769826947e+01 6 -5 0
238 1 8.4991066390793559e+00 3.1214818854985342e+00 1.8757879152485284e+01 -16 11 0
477 2 1.0761287064857147e+01 1.1586796124198533e+00 1.8139057882775205e+01 -3 6 0
388 1 9.8120926826072381e+00 1.1150725312690113e+00 1.8016957183715139e+01 -17 -1 0
213 2 1.1480236940197333e+01 2.7230541709217753e+00 2.0472902560341616e+01 2 0 0
490 1 1.0934279446696811e+01 1.7167332803471735e+00 1.8931934656565847e+01 -6 9 0
543 2 9.1834854552719403e+00 4.2017396286861528e+00 1.9815243618253231e+01 -4 15 0
442 1 8.6059488389853573e+00 1.2654162821498340e+00 2.0312476487224902e+01 -8 2 0
343 1 1.2553552011171403e+01 1.9061831947128340e+00 2.1624203151684220e+01 0 4 0
262 1 9.2021425852805869e+00 5.1422081012767673e-01 2.1516894482330571e+01 -4 7 0
196 1 7.6539860212159896e+00 2.1028730792225323e+00 2.2154750529319671e+01 -13 -2 0
264 2 9.0330200148113207e+00 1.4282508794331448e+00 2.1192645859990506e+01 -4 7 0
254 1 1.2660466375825301e+01 1.4577340458281147e+00 2.3148015175416198e+01 -8 -2 0
207 2 1.3112031490603906e+01 1.3528723228271011e+00 2.2301373975182269e+01 -9 0 0
548 1 1.2779631977141706e+01 4.3046585950292080e+00 2.4122915088715359e+01 -10 -6 0
530 1 7.0944846912066177e+00 1.7593643733658002e+00 2.3562242568737126e+01 -12 -3 0
327 2 7.0071594116757030e+00 2.4213050268685730e+00 2.2877382346389677e+01 -8 13 0
551 1 7.6373845504470355e+00 3.7665439420904101e+00 2.3427903890662037e+01 -13 -4 0
275 1 1.0581422922686864e+01 2.7496719378251218e+00 2.0936702537314790e+01 -12 -2 0
203 1 8.0642242528071879e+00 1.3051531541098529e+00 2.6491642095556216e+01 -7 6 0
240 2 9.0442307967397042e+00 1.4432576108242257e+00 2.6660014368237725e+01 -6 13 0
236 1 1.0720786402545288e+01 1.1172400475124065e+00 2.6074919659957526e+01 -13 13 0
288 2 6.6569315661916244e+00 3.4476218758650812e+00 2.7488014850546580e+01 -4 -5 0
555 2 1.1554949869398866e+01 9.7352958438846871e-01 2.5609688111100553e+01 -13 18 0
346 1 6.7472499584684993e+00 2.7501282962102980e-01 2.5017520852700617e+01 -8 -5 0
476 1 8.9848498558180570e+00 2.2906459760779194e+00 2.7179010341463130e+01 6 6 0
337 1 1.1599263034983437e+01 1.7801035654013333e+00 2.5150871657245272e+01 -5 5 0
486 2 6.6220464934356205e+00 9.6882890866576543e-01 2.5765166577947241e+01 -8 2 0
342 2 8.8011840063131057e+00 3.3172293740597683e+00 2.9512628946905444e+01 -8 -9 0
270 2 1.1471898792436898e+01 3.2698658086716130e+00 2.9848977088638208e+01 -4 3 0