LAMMPS data file via write_data, version 5 Jun 2019, timestep = 1020000

546 atoms
3 atom types

0.0000000000000000e+00 1.3959816000000000e+01 xlo xhi
0.0000000000000000e+00 8.9076089999999990e+00 ylo yhi
4.4245400000000146e-01 4.3802945999999991e+01 zlo zhi

Masses

1 1
2 16
3 47.86

Atoms # atomic

10 2 4.1310917680432597e+00 8.6702535628909949e-01 4.8460406296868772e+00 0 0 0
111 2 2.0977021166271035e+00 9.9370489018480235e-01 2.0852836617163426e+00 1 0 0
1 3 5.3278054003235242e+00 9.1382099829169972e-01 3.3704856712643387e+00 0 0 0
132 2 1.6673947734856758e+00 2.3739298188399331e+00 4.4186752841251442e+00 1 0 0
127 3 8.2414796556414993e-01 3.7956114872630029e+00 3.5574836274406447e+00 1 0 0
24 2 6.3100967531706154e+00 2.3904245532861688e+00 4.2710450149907766e+00 0 0 0
20 3 3.1412982616394842e+00 2.3618850133046854e+00 1.0876381379077920e+00 0 0 0
109 3 9.0737772552642859e-01 8.0987623997195080e-01 3.5076671091327993e+00 1 0 0
23 2 4.5236658701854022e+00 2.4739673058691167e+00 2.4702332393034792e+00 0 0 0
21 2 6.7843020220447441e+00 3.7911063252633759e+00 1.9128994300390521e+00 0 0 0
19 3 5.5958765951756888e+00 3.8894799777934503e+00 3.3315229249762615e+00 0 0 0
28 2 4.0384517657283547e+00 3.8454696109434883e+00 4.8217308736279438e+00 0 0 0
129 2 2.0987622797959129e+00 3.9759944342296789e+00 2.0490263281621455e+00 1 0 0
3 2 6.8585131612676573e+00 7.2380749499752206e-01 2.0775129412118574e+00 0 0 0
26 3 3.2254466722242228e+00 2.2937509093109676e+00 5.8191665735916454e+00 0 0 0
32 3 3.2856001393492158e+00 2.4105109522538539e+00 1.0412484449105927e+01 0 0 0
16 2 4.1436138756064089e+00 6.5255963625721136e-01 9.4666257926776201e+00 0 0 0
115 3 9.9162878774161078e-01 9.4289072070290014e-01 8.1412200861462409e+00 1 0 0
29 2 4.6556366923173016e+00 2.2220273568921982e+00 7.1202104885014164e+00 0 0 0
138 2 1.8384070111940538e+00 2.4306875291988250e+00 8.7724882631339973e+00 1 0 0
30 2 6.3194049851678660e+00 2.3272723532672126e+00 8.9565433644818757e+00 0 0 0
7 3 5.8406619759262330e+00 7.7590629015196777e-01 8.0797507933882784e+00 0 0 0
117 2 2.3303953110359803e+00 8.8653748995145887e-01 6.6401740611676692e+00 1 0 0
25 3 5.3556813545891035e+00 3.7122361251884715e+00 8.0754079669452832e+00 0 0 0
133 3 6.1273572963535017e-01 3.9924209963318211e+00 8.1819223643715624e+00 1 0 0
135 2 2.3438006252138961e+00 3.8424179327828862e+00 6.6669149803494498e+00 1 0 0
34 2 4.0422827050378629e+00 3.8362433574422226e+00 9.4960012114777950e+00 0 0 0
27 2 6.8969841509962579e+00 3.8895892520452735e+00 6.6686359706833667e+00 0 0 0
123 2 2.1721762637337889e+00 8.4101199343989341e-01 1.1240765183923280e+01 1 0 0
31 3 5.5500485125157191e+00 3.7403442744864956e+00 1.2776672227929287e+01 0 0 0
35 2 4.4592096292045733e+00 2.2736407901985065e+00 1.1865961959634868e+01 0 0 0
121 3 8.2562798233763435e-01 8.0361170433611695e-01 1.2725760509680905e+01 1 0 0
33 2 6.8730851929586434e+00 3.7033705086386948e+00 1.1354162193547543e+01 0 0 0
13 3 5.5967395369596060e+00 7.2986345957787846e-01 1.2776147894466002e+01 0 0 0
144 2 1.3893620281017593e+00 2.3224823576012170e+00 1.3686614554557460e+01 1 0 0
36 2 6.2076417103266133e+00 2.2546421690192284e+00 1.3774362727352322e+01 0 0 0
331 1 4.9218699952074170e+00 6.5219993060583492e-01 1.5164894097307341e+01 0 -2 0
332 1 3.7964429363409256e+00 1.6035443411534160e+00 1.4561242678568513e+01 0 -2 0
333 2 4.1231613497176287e+00 6.4030147921515868e-01 1.4535705444086934e+01 0 -2 0
361 1 6.0542556781380172e+00 1.9066101321079882e+00 1.5960548096844802e+01 0 -3 0
139 3 8.8171230429244818e-01 3.7828547210538210e+00 1.2644148274020472e+01 1 0 0
229 1 1.5807724818080153e+00 2.5635052016602073e+00 1.5411099429125338e+01 1 -2 0
294 2 3.9684267677441714e+00 3.6421785208219783e+00 1.4548791092171561e+01 -1 -2 0
363 2 5.4003484394063408e+00 1.6805440987869376e+00 1.6614760206958653e+01 0 -3 0
231 2 1.2765590200292167e+00 2.3294133348964374e+00 1.6308078499136151e+01 1 -2 0
293 1 4.3085948612379550e+00 4.1086901931109034e+00 1.5427544007393454e+01 -1 -2 0
292 1 3.1123465000691812e+00 4.0624409092316931e+00 1.4411072124158514e+01 -1 -2 0
15 2 6.8385460219767724e+00 8.5659845786276179e-01 1.1383764865483318e+01 0 0 0
395 1 1.1604252587565982e+00 6.3937881615285419e-01 1.6209002575340858e+01 2 -1 0
141 2 2.2277506131906639e+00 3.7936719976842208e+00 1.1294683316726518e+01 1 0 0
527 1 5.0241205266062057e+00 2.0281537618769216e+00 2.1680526909048023e+01 0 4 0
279 2 6.0309136768148415e+00 3.6306736427307147e+00 2.1480382033221311e+01 -1 -2 0
526 1 5.4400695433224060e+00 5.2899845612222629e-01 2.2110848222013537e+01 0 4 0
534 2 3.2223427641029407e+00 2.7479690077442771e+00 1.8144436079987198e+01 -2 1 0
533 1 3.9896112977533953e+00 2.4096803450753943e+00 1.7571257621147669e+01 -2 1 0
362 1 5.9773567202447930e+00 1.4183602011276917e+00 1.7334807044728461e+01 0 -3 0
528 2 4.6429086790383778e+00 1.1436753328883589e+00 2.1747638096263497e+01 0 4 0
532 1 3.4563137779566460e+00 3.5206904994472352e+00 1.8663929139959492e+01 -2 1 0
247 1 3.7299093670880348e+00 6.9419194018799890e-01 2.0464509656709009e+01 0 -1 0
196 1 2.7169880490865861e-01 4.9086749011581055e-01 2.1267691702187172e+01 -2 1 0
277 1 5.4105907422133415e+00 4.4496229985996525e+00 2.1411849887004262e+01 -1 -2 0
248 1 3.0881815458381521e+00 1.2696377226303055e+00 1.9226432091822595e+01 0 -1 0
249 2 3.1408054040579714e+00 4.3603908502316774e-01 1.9718550986256297e+01 0 -1 0
230 1 2.0275715622605737e+00 2.5597783683759801e+00 1.6929055531808064e+01 1 -2 0
223 1 2.8130363351198795e-01 2.8389076806544851e+00 2.1398237131933030e+01 3 2 0
477 2 6.0966899665044116e-01 4.2350405102870949e+00 2.0554995992403072e+01 0 6 0
225 2 3.0572531720962698e-01 2.1731547881235240e+00 2.2120410984957410e+01 3 2 0
303 2 5.4814699539300378e+00 3.8439692795715930e+00 2.6244416749044486e+01 -1 -1 0
368 1 5.4712839938810793e+00 7.1706561855942219e-01 2.7202675120620434e+01 -3 -2 0
278 1 6.3246676233938617e+00 3.6590563458237853e+00 2.2397666096968344e+01 -1 -2 0
383 1 6.4126155732985657e+00 4.1162485528627712e+00 2.4642223200561475e+01 1 -2 0
468 2 8.2093970681472017e-01 3.6942967710222683e+00 2.6481211589348767e+01 2 6 0
466 1 1.6928716175168508e+00 3.6968996765155770e+00 2.6088241728208750e+01 2 6 0
302 1 5.5543731453401373e+00 3.0084644204962623e+00 2.6771376512124938e+01 -1 -1 0
224 1 1.2139627939816509e+00 2.0567216268673265e+00 2.2615161707530923e+01 3 2 0
390 2 3.1390719059355630e+00 3.7127875998911599e+00 2.5012311873281206e+01 1 -4 0
397 1 2.8909896150457106e+00 2.3175969368793656e+00 2.4036396507038496e+01 1 2 0
389 1 4.0075382126658070e+00 3.5567224137987394e+00 2.5468952212712882e+01 1 -4 0
398 1 3.3649254151019905e+00 1.4840400952010864e+00 2.2723318908479104e+01 1 2 0
399 2 2.6328614157345194e+00 1.6771093101557393e+00 2.3357863234154344e+01 1 2 0
517 1 2.9172320548535882e+00 3.6966251343988960e-01 2.4250489318735365e+01 -1 1 0
467 1 8.6009405255182703e-01 2.9655834834365193e+00 2.7129109188925923e+01 2 6 0
215 1 4.3099150367697281e-01 1.6219232841578031e+00 3.1748724832610936e+01 1 -3 0
367 1 6.2981686158833767e+00 1.3266567537468628e+00 2.8484867614955306e+01 -3 -2 0
478 1 1.0246298151617572e+00 6.7687948196701542e-01 2.7685962985299000e+01 -1 -5 0
479 1 2.0399405115429015e+00 1.4581784091263961e+00 2.8546279961689073e+01 -1 -5 0
457 1 3.6208608866945453e+00 2.7937693878840033e+00 3.0193890460067074e+01 0 -6 0
458 1 4.2552118896883631e+00 3.8119559441433983e+00 3.1276550516634810e+01 0 -6 0
459 2 3.4759453922789825e+00 3.6313255871372507e+00 3.0715840265459676e+01 0 -6 0
203 1 4.3021685680206350e+00 1.4794187654172497e+00 2.8759005429104835e+01 -1 2 0
202 1 3.3092189744765488e+00 7.3796038487822946e-01 3.0096073357099996e+01 -1 2 0
204 2 3.4577616503674666e+00 1.4213068524547119e+00 2.9337435375138774e+01 -1 2 0
480 2 1.1196497281372684e+00 1.5354248130659280e+00 2.8214107479893350e+01 -1 -5 0
290 1 2.3188811399032998e+00 3.8528906493326218e+00 3.2177577076051982e+01 0 0 0
258 2 5.4969894904323597e+00 4.2502137228534096e+00 3.2257581065731401e+01 0 0 0
353 1 6.8195425925780437e+00 3.6045204076923669e+00 3.1027904530146071e+01 0 2 0
369 2 5.5685408496204332e+00 1.4767709605904327e+00 2.7820043591403650e+01 -3 -2 0
216 2 8.5715039995585052e-01 1.5846634334867447e+00 3.2716937633663377e+01 1 -3 0
214 1 1.2994525591122277e+00 2.4156875970153502e+00 3.2807028421690319e+01 1 -3 0
291 2 1.7262683392487252e+00 3.8487895648296124e+00 3.2930198866266863e+01 0 0 0
262 1 2.0150353738229425e+00 4.1107952234753666e+00 3.4902703509281672e+01 -1 -1 0
209 1 3.0871513127465557e+00 7.5328979354069947e-01 3.6360181289757769e+01 -1 0 0
205 1 4.4766685035960201e+00 2.4291855497800685e+00 3.6801198925401813e+01 0 -1 0
206 1 3.3510228192860163e+00 2.7000743724165552e+00 3.5756448102830134e+01 0 -1 0
351 2 6.0711214750988829e-01 3.1497829566457849e+00 3.7730605803904879e+01 0 4 0
349 1 6.2664350698903115e-01 2.1896950713206271e+00 3.7886836854320315e+01 0 4 0
348 2 2.3332782625265489e+00 4.1820453820091013e+00 3.5851356709461051e+01 0 -1 0
350 1 1.3905791227666107e+00 3.4170563930888127e+00 3.7163154142317190e+01 0 4 0
207 2 4.1210813472020096e+00 2.1271771828786874e+00 3.5961630221746908e+01 0 -1 0
264 2 5.8903476087438955e+00 2.0803124426710315e+00 3.4104219038764271e+01 -1 0 0
347 1 5.2345653309286400e+00 2.1371156632371422e+00 3.4888720693389423e+01 0 0 0
263 1 5.6978991383025805e+00 1.2339698229860205e+00 3.3629533788940989e+01 -1 0 0
421 1 1.3188175967868814e+00 8.4357586466611331e-02 3.3141757020596181e+01 0 2 0
256 1 5.6607285829871206e+00 3.6328389670473600e+00 3.3014547298883528e+01 0 0 0
314 1 6.3570483979119912e+00 2.1745985725190016e+00 4.1611885579220683e+01 1 0 0
22 2 3.6343694932028896e+00 3.9341881891023180e+00 4.3401672701622061e+01 0 0 -1
283 1 2.8475328478536603e+00 1.9559061805151534e+00 4.0938912752226990e+01 -1 3 0
432 2 1.4731069896985445e+00 2.4694382520698595e+00 4.2897619567280088e+01 2 1 0
319 1 5.7833854008390739e+00 4.4703236727827123e-01 3.8711910467711981e+01 -3 2 0
505 1 4.4742980090002344e+00 2.4344613822284740e+00 3.9366110990754599e+01 0 1 0
4 2 3.9893049546024790e+00 8.6755704101203213e-01 4.3761431365774385e+01 0 0 -1
430 1 7.7440239862352933e-01 3.1259517234900325e+00 4.3236906125863676e+01 2 1 0
431 1 8.6733397901318510e-01 1.6717143843758702e+00 4.2936231141076178e+01 2 1 0
284 1 3.1771103069830633e+00 6.3795693719399771e-01 4.0180304741269303e+01 -1 3 0
285 2 2.9152945309958316e+00 1.5768409414584450e+00 4.0042858024041095e+01 -1 3 0
315 2 6.0393698133058997e+00 2.8921568764948975e+00 4.2194160425915875e+01 1 0 0
313 1 5.3160889175537038e+00 2.4209895659760239e+00 4.2595465733512043e+01 1 0 0
530 1 6.9089419506829175e-01 3.9491545334608023e+00 3.9432098151874818e+01 1 -1 0
506 1 5.6423741870026864e+00 3.2584407949012699e+00 3.8614978839216050e+01 0 1 0
531 2 5.6623531145863470e-01 4.2814493735946710e+00 4.0351635005986914e+01 1 -1 0
507 2 5.0495478632397433e+00 2.3773356315150944e+00 3.8560513920832683e+01 0 1 0
529 1 1.1481070051727890e-01 3.4942600245090203e+00 4.0854431030287337e+01 1 -1 0
2 3 3.2648315375311303e+00 8.2797019950607389e+00 1.2074940375130032e+00 0 -1 0
145 3 9.1337810600678249e-01 6.8056378396688713e+00 3.5917117293324434e+00 1 0 0
38 3 3.2298324060881738e+00 5.3153758580984896e+00 1.2559676561324522e+00 0 0 0
41 2 4.5804646551954633e+00 5.4925903721866360e+00 2.4992854152927682e+00 0 0 0
37 3 5.7944950603453691e+00 6.8154789509257228e+00 3.4423618461347338e+00 0 0 0
46 2 4.1795125861198414e+00 6.7258448800109703e+00 4.9662123283411335e+00 0 0 0
147 2 2.1104913304519388e+00 6.7317171317353885e+00 2.0541484484549106e+00 1 0 0
150 2 1.6096334263365251e+00 5.2610044673917411e+00 4.5607772849757007e+00 1 0 0
42 2 6.5448905040453393e+00 5.4800708339256703e+00 4.2897540642828060e+00 0 0 0
6 2 6.4366644857350233e+00 8.3462447144324887e+00 4.3564643847938385e+00 0 -1 0
114 2 1.8189493312562219e+00 8.3474050078267776e+00 4.3288335199096197e+00 1 -1 0
5 2 4.4458681266999740e+00 8.2781039595926256e+00 2.6644741507334557e+00 0 -1 0
39 2 6.8757427059366165e+00 6.9506273597880206e+00 1.9483808853691451e+00 0 0 0
8 3 3.4171447849067338e+00 8.1740758082943632e+00 5.7737685655961331e+00 0 -1 0
44 3 3.2331333379726996e+00 5.1913428893924829e+00 5.7576953839396561e+00 0 0 0
43 3 5.5878158568757303e+00 6.7607826810946223e+00 8.1729603661848333e+00 0 0 0
52 2 3.9783687299553079e+00 6.6073809344937224e+00 9.4224351395948709e+00 0 0 0
50 3 3.0520208182217963e+00 5.4632636562244761e+00 1.0479046894150839e+01 0 0 0
156 2 1.5947670348931815e+00 5.2332844429203922e+00 9.0286091743109722e+00 1 0 0
48 2 6.3259024145393994e+00 5.2636437971875241e+00 8.9911848110080754e+00 0 0 0
153 2 2.1317291294823186e+00 6.8631359862764718e+00 6.7250582499436815e+00 1 0 0
47 2 4.6637542568787174e+00 5.2940346477204061e+00 7.1083118508265608e+00 0 0 0
151 3 9.6758643742920547e-01 6.8401767807633123e+00 8.0912153312717887e+00 1 0 0
12 2 6.4364981303628062e+00 8.1883542076219520e+00 9.0816777711060563e+00 0 -1 0
120 2 1.6147762747889247e+00 8.2890750110747540e+00 9.0778731930489158e+00 1 -1 0
11 2 4.7052871716715137e+00 8.2289714932310041e+00 7.0845691877742523e+00 0 -1 0
14 3 3.2701840054965570e+00 8.4091234877943464e+00 1.0423040214654677e+01 0 -1 0
45 2 6.9368122020662062e+00 6.7589572350123994e+00 6.7264134670973101e+00 0 0 0
159 2 2.0905251037288353e+00 6.8503811235678587e+00 1.1273467196167534e+01 1 0 0
51 2 6.7320762204746725e+00 6.7748681448458719e+00 1.1186613651111189e+01 0 0 0
286 1 3.2796792386719074e+00 6.3337378035945262e+00 1.4049578200366511e+01 1 0 0
53 2 4.4249882419109561e+00 5.2974829949862396e+00 1.1972188598565522e+01 0 0 0
288 2 4.0879741116163197e+00 6.8502449957476026e+00 1.4276445886654047e+01 1 0 0
157 3 7.9232499676200585e-01 6.7295461130171921e+00 1.2778902923228681e+01 1 0 0
54 2 6.3212975214461347e+00 5.2857714269925413e+00 1.3621783423188521e+01 0 0 0
162 2 1.6093941638233873e+00 5.2127035686922198e+00 1.3571977401337298e+01 1 0 0
49 3 5.5365618680746369e+00 6.6991570669183362e+00 1.2736087332038469e+01 0 0 0
287 1 3.7307012703554672e+00 7.7520299623041193e+00 1.4272520896298369e+01 1 0 0
18 2 6.2603123032294130e+00 8.2105685636086516e+00 1.3692410142197581e+01 0 -1 0
126 2 1.5400980381405802e+00 8.1898104089707058e+00 1.3594244772839799e+01 1 -1 0
311 1 5.3931731504682592e+00 5.9024516734842027e+00 1.5574355700581867e+01 -1 -1 0
17 2 4.5201217646996392e+00 8.2263342044862373e+00 1.1985209224649102e+01 0 -1 0
394 1 1.1824287607075175e+00 8.2061540754458751e+00 1.5366941580596846e+01 2 -2 0
396 2 1.1101797350355174e+00 8.5928612881382627e+00 1.6257302860442088e+01 2 -2 0
312 2 5.0858147500811501e+00 5.5013191528081933e+00 1.6412119330520955e+01 -1 -1 0
370 1 6.3413621888033624e+00 5.9514192478429599e+00 1.7809390174161688e+01 -2 -1 0
522 2 2.8803497516974050e+00 4.9727889773849041e+00 1.9501861968653401e+01 -1 -1 0
428 1 6.9041585162549934e-01 7.2695311815025985e+00 2.1904662446816108e+01 3 -1 0
476 1 1.4370352908708666e+00 4.5400191757644830e+00 2.0017155636203022e+01 0 6 0
521 1 3.4971855300098671e+00 5.2791669561509611e+00 2.0246617205234028e+01 -1 -1 0
520 1 2.8706437118042847e+00 5.7560070164403925e+00 1.8840742013599304e+01 -1 -1 0
385 1 2.5918920864522352e+00 7.5710053274593845e+00 1.7102893219466360e+01 2 1 0
475 1 5.0359280882618307e-01 5.0251982449861785e+00 2.1104643125830062e+01 0 6 0
195 2 6.6524598414165448e-01 8.6778682025825109e+00 2.0764835741631774e+01 0 1 0
387 2 3.1295102602831610e+00 7.3367158049605248e+00 1.7879936877004699e+01 2 1 0
386 1 3.2656981356637282e+00 8.0453376189302688e+00 1.8558907287766679e+01 2 1 0
497 1 5.2955447770404414e+00 7.0140736192625495e+00 2.1756217314651092e+01 1 0 0
444 2 4.7036869046315877e+00 6.1959523340181200e+00 2.1529813668916322e+01 1 -1 0
481 1 6.7774397516431577e+00 8.2455270066183211e+00 2.1188589242072716e+01 -1 -1 0
310 1 4.4199893355328346e+00 6.1482911768081578e+00 1.6775510050190906e+01 -1 -1 0
483 2 6.2019275183345721e+00 8.2310350556882881e+00 2.2023621765465236e+01 -1 -1 0
194 1 1.5727401608985114e+00 8.9019909136272393e+00 2.0498453700477949e+01 0 1 0
487 1 6.5145673530371937e+00 8.1064370717106868e+00 2.5145098813358565e+01 1 -1 0
437 1 5.1774942026871997e+00 7.4319366716588222e+00 2.6842099848829612e+01 0 3 0
482 1 6.6739769665083681e+00 8.1951567209846381e+00 2.2946172749923182e+01 -1 -1 0
519 2 2.9024620625136932e+00 8.3914154020387475e+00 2.4730356279187877e+01 -1 0 0
438 2 5.2175383351257612e+00 8.2833092845155463e+00 2.6285080118970729e+01 0 3 0
402 2 1.0785938048254740e+00 8.3456101935192599e+00 2.6530409177324003e+01 -2 -1 0
388 1 3.0446702355140265e+00 4.6614294290430767e+00 2.4528065846487753e+01 1 -4 0
512 1 1.9205529736241054e+00 6.0768369017243389e+00 2.3279455502904668e+01 -1 0 0
513 2 2.8529454907634801e+00 5.8982488512994573e+00 2.3691534121246594e+01 -1 0 0
518 1 2.2900176912222490e+00 8.5334851957531868e+00 2.5441094252688419e+01 -1 0 0
436 1 4.3631053028058409e+00 8.2589685194958697e+00 2.5714629681833753e+01 0 3 0
511 1 2.9856768539396179e+00 6.7987013414419870e+00 2.4123450763297587e+01 -1 0 0
401 1 1.1262460631712359e+00 7.5326773516812278e+00 2.7122550672930192e+01 -2 -1 0
442 1 4.1857472560552207e+00 6.0531047115172694e+00 2.2377224360061149e+01 1 -1 0
400 1 1.8667190559481306e-01 8.4132349916101390e+00 2.6102985384407752e+01 -2 -1 0
470 1 9.9144925799701700e-01 5.2819206800238838e+00 2.7095777522110499e+01 0 0 0
429 2 5.8463263213781858e-01 6.4052404162698071e+00 2.2439423341348871e+01 3 -1 0
301 1 5.3550148702295708e+00 4.6194168721095217e+00 2.6955943136056518e+01 -1 -1 0
378 2 5.3461624713354059e+00 8.7876679435089340e+00 3.2235674240540398e+01 0 -4 0
440 1 2.6223983075848580e+00 8.2244233461028617e+00 3.1897291306707555e+01 -1 2 0
235 1 6.2298771111265561e+00 6.1469390165359181e+00 2.8269991296411291e+01 -2 0 0
170 1 2.4142349824266454e+00 5.9228617102315653e+00 2.8720449221084397e+01 0 0 0
236 1 4.5255368173170032e+00 6.2057475137894560e+00 2.8531035877334890e+01 -2 0 0
471 2 9.8732595879752827e-01 6.0743411317153990e+00 2.7805126979287312e+01 0 0 0
376 1 4.6195415153731085e+00 8.6509127747956924e+00 3.1577543855849051e+01 0 -4 0
441 2 3.1274754009402348e+00 8.1792349883373703e+00 3.1002068766478619e+01 -1 2 0
439 1 2.9416851733497307e+00 7.2623321106795746e+00 3.0551162296621214e+01 -1 2 0
237 2 5.3191709553984801e+00 6.1171690309908646e+00 2.7876763939492015e+01 -2 0 0
171 2 3.1473604644989854e+00 5.8965050133735506e+00 2.9434064914449252e+01 0 0 0
289 1 1.1477521060576112e+00 4.6792409161094177e+00 3.2889660862711153e+01 0 0 0
169 1 3.1844521227831737e+00 4.9991256653438603e+00 2.9776495464202149e+01 0 0 0
413 1 6.6075741141851498e+00 8.0582599138855091e+00 3.1539894038464251e+01 -3 0 0
469 1 1.4498370056363191e-01 6.3250730828241304e+00 2.8316549137243364e+01 0 0 0
276 2 2.8547751532304072e-01 6.0254731940957260e+00 3.2677735599417204e+01 1 -1 0
377 1 5.2169806840174102e+00 7.9536906044530040e+00 3.2808934548226887e+01 0 -4 0
257 1 5.2879586491761268e+00 5.1395975313861397e+00 3.2675902933002803e+01 0 0 0
411 2 3.9032419100567219e+00 6.5766990691947456e+00 3.6224084250355162e+01 -1 1 0
486 2 5.2688585369479801e+00 6.4699105650764572e+00 3.3730277077754849e+01 1 0 0
210 2 2.5816183510399018e+00 8.8498644555253740e+00 3.6285334416723877e+01 -1 -1 0
208 1 1.7411340986287582e+00 8.8277559880246201e+00 3.6897410705250735e+01 -1 -1 0
410 1 4.3535655253672232e+00 6.3710735178698705e+00 3.7055518689518031e+01 -1 1 0
305 1 6.5842165365645462e+00 8.6001897672430712e+00 3.7595402396615341e+01 0 2 0
346 1 2.8382548970001644e+00 5.0240443402258874e+00 3.5985099010497137e+01 0 -1 0
261 2 1.6408539831135460e-01 8.8181475174600887e+00 3.7800408694458532e+01 -1 4 0
409 1 3.4688012275975053e+00 7.4323023504585857e+00 3.6404672988292162e+01 -1 1 0
485 1 4.6004024547183269e+00 6.4378638168054776e+00 3.4460071833515435e+01 1 0 0
484 1 6.1150317667452629e+00 6.4044942408992638e+00 3.4145484545031543e+01 1 0 0
422 1 2.2167179571027060e+00 8.3275552997592861e+00 3.4326296841297768e+01 0 1 0
423 2 1.8912409966100516e+00 8.2444934199295883e+00 3.3427425994685322e+01 0 1 0
259 1 8.9888632192089701e-02 8.0516845999508728e+00 3.8346922358850335e+01 -1 4 0
275 1 7.9262280380883832e-01 6.6991528130939750e+00 3.3087348761225307e+01 1 -1 0
375 2 6.3924032123371664e+00 5.4260906287396740e+00 4.3068393426010061e+01 0 -1 0
324 2 2.5173624266517032e+00 7.7806478571428590e+00 4.0808400267905746e+01 0 3 0
197 1 2.3247595408769302e+00 4.7347848396626366e+00 4.0716061290412931e+01 -2 3 0
492 2 1.6242421095749726e+00 8.3572561483294336e+00 4.3239549221538127e+01 1 -1 0
228 2 6.5752519062169279e+00 8.3876368104998527e+00 4.2823788186986604e+01 -1 0 0
322 1 3.0123467863198905e+00 6.9852250929425992e+00 4.1141314641436537e+01 0 3 0
323 1 1.5686533745946607e+00 7.5290190924700324e+00 4.0568667136925541e+01 0 3 0
535 1 4.9470483943856038e+00 7.2002902519059209e+00 3.8944795005964906e+01 -1 2 0
536 1 4.0292355728460914e+00 6.0829208430101405e+00 3.9778263721010070e+01 -1 2 0
320 1 8.2245486177329474e-01 7.8342934378240541e+00 4.3386955552872308e+01 -2 0 0
374 1 5.4904230994664847e+00 5.8752491277335235e+00 4.3298599435700368e+01 0 -1 0
304 1 2.0029923485152001e+00 8.1500203649512546e+00 4.2278778481282835e+01 2 3 0
198 2 3.3558820525662130e+00 4.9108091022610267e+00 4.0656400896935402e+01 -2 3 0
40 2 3.8401787436122836e+00 6.8413757317547281e+00 4.3552515116034911e+01 0 0 -1
226 1 6.8224725459377504e+00 7.6575939671507243e+00 4.2230829604917844e+01 -1 0 0
227 1 5.6935803557276081e+00 8.1271424574478370e+00 4.3064180184687189e+01 -1 0 0
306 2 5.9793223342011661e+00 8.4461932650680218e+00 3.8387033038775854e+01 0 2 0
166 1 5.8631054904610265e+00 5.2646512380861070e+00 3.8616213415989272e+01 1 0 0
193 1 3.6722538704298882e+00 4.4825214047714557e+00 4.1508446354357311e+01 0 4 0
537 2 4.6961110359865534e+00 6.2895351051986870e+00 3.8998008615541387e+01 -1 2 0
434 1 1.4458415991921364e-01 6.0117726523078145e+00 4.0011762648738213e+01 1 1 0
366 2 6.5659951523555087e+00 4.5135269438225016e+00 3.8756417681951284e+01 0 4 0
373 1 6.3277389469050629e+00 4.5586235326835443e+00 4.2488188778356751e+01 0 -1 0
435 2 7.8396215735172567e-02 6.9573877874708510e+00 3.9965307865536815e+01 1 1 0
118 2 1.3481076266979169e+01 8.8306650019365673e-01 5.0369323892406968e+00 0 0 0
64 2 8.8023467281670769e+00 9.0237493346026743e-01 4.9775133360634856e+00 0 0 0
57 2 1.1380754721355613e+01 8.5159946590846569e-01 2.0019017622608160e+00 0 0 0
74 3 7.9214468326972689e+00 2.4472776169883481e+00 1.3020080270093743e+00 0 0 0
78 2 1.1215290700388657e+01 2.4966426699234079e+00 4.2891548507724400e+00 0 0 0
128 3 1.2537320424628446e+01 2.4189353059655523e+00 1.1938856961630631e+00 0 0 0
77 2 9.1617441820424670e+00 2.3972341755023749e+00 2.6828858849139481e+00 0 0 0
55 3 1.0282178063472697e+01 9.5918769477307664e-01 3.6942213921630200e+00 0 0 0
82 2 8.8168263490054528e+00 3.8502821188681460e+00 4.9564756927255891e+00 0 0 0
136 2 1.3319143333979188e+01 3.9421426720067241e+00 4.9823986343659898e+00 0 0 0
73 3 1.0166201172458882e+01 4.0219944744495804e+00 3.3050944373708173e+00 0 0 0
75 2 1.1462403240925028e+01 3.8426776996270964e+00 1.9726133726620785e+00 0 0 0
134 3 1.2647238905108752e+01 2.4332416534994250e+00 5.7765995199056306e+00 0 0 0
80 3 7.8208835143997746e+00 2.4107343606132705e+00 5.5352274724139354e+00 0 0 0
131 2 1.3863587054276419e+01 2.3400323006586663e+00 2.5283228555055488e+00 0 0 0
63 2 1.1366158992794807e+01 8.5323513534517093e-01 6.4543270806873805e+00 0 0 0
86 3 7.8665315987682050e+00 2.2966656000148529e+00 1.0498729880290835e+01 0 0 0
124 2 1.3498304133811040e+01 9.0823789437119296e-01 9.7422652272620152e+00 0 0 0
140 3 1.2415125279695417e+01 2.3696993083510387e+00 1.0419656979362554e+01 0 0 0
61 3 1.0241968505253466e+01 9.9540544198682779e-01 7.9142923982175146e+00 0 0 0
83 2 9.2458223932968444e+00 2.4699707345507793e+00 7.2589870034903337e+00 0 0 0
70 2 8.5773188565725409e+00 8.9631350105828378e-01 9.5945137335901318e+00 0 0 0
84 2 1.1198274953213851e+01 2.3678342448083423e+00 8.9380038162916140e+00 0 0 0
88 2 8.5872613981940962e+00 3.8406052690051129e+00 9.5105458317502691e+00 0 0 0
79 3 1.0059253248423952e+01 3.9023060198634640e+00 8.2373324994775103e+00 0 0 0
142 2 1.3370273863848377e+01 3.8320822000844612e+00 9.6565695255142163e+00 0 0 0
81 2 1.1428256664993169e+01 3.9117781670921024e+00 6.6401729904575779e+00 0 0 0
137 2 1.3760083722834271e+01 2.3295230595468102e+00 7.3581329843393197e+00 0 0 0
9 2 7.0869392592243576e+00 8.3937610981461319e-01 6.6309511790221860e+00 0 0 0
89 2 9.0733622553560185e+00 2.3123353082578397e+00 1.1847552837293421e+01 0 0 0
213 2 8.7828368708836990e+00 1.1334726638268275e+00 1.4235295936672108e+01 -1 0 0
85 3 1.0250477785611485e+01 3.6912899986286547e+00 1.2753127845650878e+01 0 0 0
180 2 8.7317255623440602e+00 3.8406757288414695e+00 1.4435542719657512e+01 0 0 0
189 2 1.3201696159681582e+01 7.9845792540141081e-01 1.4288785674899032e+01 -1 -3 0
176 1 9.9928995755792336e+00 3.6654788195817982e+00 1.5766322617022192e+01 -1 3 0
90 2 1.1040914189743988e+01 2.2591867821441869e+00 1.3520806459356889e+01 0 0 0
217 1 1.2229955649926175e+01 3.6523450610483366e+00 1.5326880171280651e+01 0 1 0
67 3 1.0255597793971093e+01 7.4511298689074434e-01 1.2723550827549541e+01 0 0 0
178 1 7.9759094774253247e+00 3.2534942926384867e+00 1.4338408631038785e+01 0 0 0
188 1 1.2436113347515025e+01 1.2822085967849170e-01 1.4289829961530366e+01 -1 -3 0
219 2 1.3133585312508806e+01 3.8157371335137347e+00 1.5004333624245966e+01 0 1 0
143 2 1.3793158337983899e+01 2.3904916817293578e+00 1.1827839360681681e+01 0 0 0
211 1 9.2512238576524961e+00 1.1602151879295524e+00 1.5107920610359617e+01 -1 0 0
177 2 1.0684331824084200e+01 3.4664370415975707e+00 1.6388661278101452e+01 -1 3 0
212 1 7.9589923053534974e+00 6.2405367812545975e-01 1.4180593179127914e+01 -1 0 0
187 1 1.2779268840832977e+01 1.6891448756962089e+00 1.4241093687064009e+01 -1 -3 0
69 2 1.1570400679141091e+01 7.2430423644320374e-01 1.1317795006202584e+01 0 0 0
218 1 1.3676035198250846e+01 3.3288549804899725e+00 1.5680956808483407e+01 0 1 0
87 2 1.1498486506182006e+01 3.7467208923433728e+00 1.1396769441983267e+01 0 0 0
360 2 7.4005830097809229e+00 1.6258031855123545e+00 1.8446758629538088e+01 -2 2 0
393 2 1.2189275114499619e+01 3.6301429171866606e+00 1.9047989242879169e+01 -2 0 0
392 1 1.1928390376486902e+01 2.6783536802957046e+00 1.8718951031898861e+01 -2 0 0
191 1 1.1139283228990569e+01 3.7530351055797340e+00 2.0428360924469690e+01 0 3 0
408 2 1.1565198133091503e+01 9.7984391603951448e-01 1.8688600251185370e+01 0 -2 0
474 2 7.9586485778511893e+00 3.8778801787826551e+00 1.9552412991539107e+01 1 -6 0
174 2 9.6125595850358927e+00 7.2062870709187110e-01 1.6868511304812266e+01 1 0 0
391 1 1.3065163914378523e+01 3.5599686538228297e+00 1.9484631842415567e+01 -2 0 0
496 1 9.5634444409825647e+00 3.7627074925839472e+00 2.0314277309882545e+01 0 2 0
498 2 1.0302925550729388e+01 3.8767672790648797e+00 2.0993605528606391e+01 0 2 0
407 1 1.0996951390075383e+01 5.8435780942191573e-01 1.9432284697597566e+01 0 -2 0
473 1 7.6622124618520777e+00 3.0261313232605174e+00 1.9017108691757230e+01 1 -6 0
359 1 8.2430455321663025e+00 1.2478302053839874e+00 1.7981075130738631e+01 -2 2 0
173 1 1.0480249242818742e+01 9.0899849505539387e-01 1.7411941718044019e+01 1 0 0
443 1 9.9427912350150720e+00 7.2330266902978524e-01 2.1535069777465104e+01 0 0 0
358 1 7.3954968965958523e+00 7.3119978747789049e-01 1.9026400173688803e+01 -2 2 0
175 1 1.0676042287359385e+01 4.2797906694958261e+00 1.6993505755923849e+01 -1 3 0
406 1 1.2164173512869118e+01 1.4854445137901040e-01 1.8635302583125441e+01 0 -2 0
472 1 7.3579336507717032e+00 3.9866172543835066e+00 2.0358862210370582e+01 1 -6 0
192 2 1.0070778869830672e+01 4.8979109193806158e-02 2.0768527948868794e+01 0 1 0
308 1 9.8490448864802698e+00 2.6094629062974866e+00 2.1923903654143814e+01 0 3 0
382 1 7.4337497666234089e+00 3.0524072427686191e+00 2.4363905439942794e+01 1 -2 0
269 1 1.2192625550584035e+01 2.8601622725340561e+00 2.4223300107396518e+01 -1 1 0
255 2 9.2061112260414149e+00 1.9041029396553000e+00 2.7203822895822089e+01 -2 3 0
541 1 1.3428323988227001e+01 4.1746594849300909e+00 2.5478372595311761e+01 -1 1 0
268 1 1.2943989945427031e+01 2.0373151271721550e+00 2.3172173434330418e+01 -1 1 0
252 2 8.1926215060518555e+00 1.6345937549686871e+00 2.4751213781512117e+01 0 3 0
270 2 1.2219734545124558e+01 1.9302989107991166e+00 2.3875076579092813e+01 -1 1 0
250 1 8.8834264193073018e+00 1.7554181626552898e+00 2.3993747264460247e+01 0 3 0
543 2 1.2462850841265643e+01 4.2267684039133426e+00 2.5259377111939557e+01 -1 1 0
544 1 1.2678076329886197e+01 6.6442650600519881e-01 2.5150498621619377e+01 0 2 0
454 1 1.1521717301712860e+01 4.0459844360870294e+00 2.6421198168899064e+01 0 0 0
307 1 1.0725297953001082e+01 1.8122438306765629e+00 2.2940024748234364e+01 0 3 0
253 1 8.7252989284115046e+00 1.9134827970417643e+00 2.6373140953881457e+01 -2 3 0
309 2 9.8190264268828571e+00 1.8979245764020767e+00 2.2659905521323672e+01 0 3 0
455 1 1.0210355370969982e+01 3.4039181119929549e+00 2.7274464785309782e+01 0 0 0
251 1 7.9480084432643103e+00 6.8940543794794995e-01 2.4671976794030488e+01 0 3 0
456 2 1.0825377522057289e+01 4.1822920893262046e+00 2.7209865517539736e+01 0 0 0
384 2 7.0471248519868421e+00 3.9174302626668163e+00 2.3923636834791250e+01 1 -2 0
539 1 1.0140272829989863e+01 4.8697502095339212e-01 2.7309586150442218e+01 -1 -1 0
165 2 1.1769419624865840e+01 3.9816579685270699e+00 2.9821348766377724e+01 0 -3 0
265 1 7.5049254765761644e+00 3.7134570756861551e-01 2.9824530784562032e+01 -1 -2 0
352 1 8.3767351244480075e+00 3.5493747566172904e+00 3.0862982145203198e+01 0 2 0
344 1 1.0626785078770620e+01 4.0051448192801971e+00 3.0909355855786401e+01 3 0 0
266 1 7.7272953233428980e+00 1.9819895243161634e+00 2.9720478808201886e+01 -1 -2 0
222 2 1.3321862650512344e+01 1.7623066565021530e+00 3.0331132405342512e+01 1 0 0
354 2 7.5126363219248642e+00 3.4772883308366027e+00 3.0382533143571941e+01 0 2 0