LAMMPS data file via write_data, version 5 Jun 2019, timestep = 1020000

528 atoms
3 atom types

0.0000000000000000e+00 1.3959816000000000e+01 xlo xhi
0.0000000000000000e+00 1.1039765715121495e+01 ylo yhi
0.0000000000000000e+00 3.3880099999999999e+01 zlo zhi

Masses

1 1
2 16
3 47.86

Atoms # atomic

57 2 1.3687099943581573e+00 1.0235147006843319e+00 3.8905959692937158e+00 0 0 0
60 2 3.8142789682221396e+00 1.4429202009148410e+00 2.3578340765109940e+00 0 0 0
107 2 6.5062731729512340e+00 3.7042590342280235e+00 4.0645177157427472e+00 0 0 0
98 3 5.0143735259805826e+00 4.0160910777620851e+00 8.1018535539705661e-01 0 0 0
50 3 3.2584283825858029e-01 4.3226759795952256e+00 7.6696461474486355e-01 0 0 0
104 3 5.1392559892448970e+00 2.5659732157049571e+00 3.2645915730326660e+00 0 0 0
105 2 6.0321100567009269e+00 1.1018563243298296e+00 4.0781147837258436e+00 0 0 0
49 3 2.8378869847534838e+00 1.5159260920121811e+00 8.2891805652179895e-01 0 0 0
51 2 1.5157525199510105e+00 2.6778437597712719e+00 1.4781779558435211e+00 0 0 0
58 2 4.2077027475240572e+00 4.0458449007366850e+00 2.4534189670550268e+00 0 0 0
99 2 6.1147977437815646e+00 2.5871982574879349e+00 1.5811660392590703e+00 0 0 0
56 3 6.3842066816183596e-01 2.5857030208567831e+00 3.2202671723393732e+00 0 0 0
59 2 2.0089985486841901e+00 3.7001107463684209e+00 4.0251954844909683e+00 0 0 0
79 3 2.7445863742224796e+00 5.4549046264179415e+00 3.3287821642020967e+00 0 0 0
125 2 6.7102916915676882e+00 5.2167446515434541e+00 1.4956104963570689e+00 0 0 0
77 2 1.8479503701264677e+00 5.4619518630807491e+00 1.5320516054768538e+00 0 0 0
62 3 4.2174187509169697e-01 8.2784479012868661e-01 5.7939232794600493e+00 0 0 0
61 3 3.0250549123476485e+00 3.8179923296493596e+00 5.8188015495328225e+00 0 0 0
113 2 6.5919912959811304e+00 2.2752954896603348e+00 6.6536105216244978e+00 0 0 0
64 2 4.2063254606445515e+00 2.4980558257954164e+00 5.1269566749151210e+00 0 0 0
110 3 5.0898342567322805e+00 1.0943394365995212e+00 5.9686169271822447e+00 0 0 0
72 2 3.7528745007577999e+00 3.6710580457448416e+00 7.6219414841150739e+00 0 0 0
68 3 6.7739185657024992e-01 4.5581772901094419e+00 8.2025709262773780e+00 0 0 0
70 2 4.2412980671595824e+00 9.8757967411372660e-01 7.5952020671218614e+00 0 0 0
65 2 2.0061370919217119e+00 2.0930786060624826e+00 6.4003611337158395e+00 0 0 0
63 2 1.4315957702654998e+00 4.8055697606527952e+00 6.5694514235069468e+00 0 0 0
111 2 5.9638170718821488e+00 4.8573615873325569e+00 6.5251101639412985e+00 0 0 0
90 2 3.7633848261201734e+00 5.4994773086796416e+00 4.9060291021297546e+00 0 0 0
67 3 2.6334420451198453e+00 1.9124041254223321e+00 8.0785887977782362e+00 0 0 0
116 3 5.2918353446422124e+00 4.6730669054155882e+00 8.4690905725124459e+00 0 0 0
159 2 1.2715902776447743e+00 3.2087889841351247e+00 1.2032108601560015e+01 2 1 0
396 2 4.0678545665560977e+00 2.2131266283439808e+00 1.0065827021423777e+01 0 0 0
117 2 6.2864348528173357e+00 3.3466925062018209e+00 9.1155127732200523e+00 0 0 0
295 1 5.0467040532675362e+00 2.3321058485904462e+00 9.7814574152983980e+00 0 0 0
154 1 2.7187577421296525e+00 5.4907580836459360e+00 9.5884337447197883e+00 3 -3 0
69 2 1.4552046228280751e+00 3.1750662758662420e+00 9.0716411894027296e+00 0 0 0
71 2 1.7402136933313566e+00 5.2389889365479658e-01 8.8996927548567140e+00 0 0 0
157 1 1.4594710551134962e+00 3.2484960343225251e+00 1.1053642808130382e+01 2 1 0
156 2 4.0059628192157009e+00 4.7356367078540691e+00 1.0096732446705786e+01 3 -3 0
332 1 3.8966663244898223e+00 3.1824156730555364e+00 1.0264822325088348e+01 0 -2 0
429 2 5.3507099044331214e+00 1.4969551131508461e+00 1.2617208227163950e+01 1 3 0
119 2 6.4814354507699941e+00 5.6281274779785639e-01 9.0538065929157856e+00 0 0 0
252 2 9.2861289549122894e-01 1.9068798970375511e-01 1.2468837101958817e+01 1 -2 0
428 1 4.6378707778246078e+00 1.6330198656420658e+00 1.1951174085930964e+01 1 3 0
455 1 4.3788173166305695e+00 5.7714443037075971e-02 1.0660642458197458e+01 0 1 0
158 1 1.4957203936479042e+00 2.2629365459631221e+00 1.2241759560627314e+01 2 1 0
298 1 1.6796283418383026e-01 2.2255187557967981e+00 9.7315626299292894e+00 0 0 0
155 1 4.4165227221216981e+00 5.1825812450703523e+00 1.0781598581166707e+01 3 -3 0
316 1 6.7294310893735814e+00 2.4719446076339424e+00 1.2598405432930308e+01 2 3 0
271 1 4.2203229920916998e+00 2.0151926990875890e+00 1.5781342052003836e+01 5 3 0
272 1 4.0568958721480737e+00 6.0709434811911545e-01 1.5369012212420245e+01 5 3 0
327 2 3.0326307178423901e+00 5.0384027203904251e+00 1.2945153725363348e+01 0 1 0
200 1 6.5404121651275329e+00 4.4204575485122470e+00 1.3057679588709743e+01 2 -3 0
268 1 3.5060479381483689e+00 4.9405066745296864e+00 1.4714930566068460e+01 0 2 0
427 1 5.0221467524376342e+00 1.5746336529446965e+00 1.3533625763440627e+01 1 3 0
269 1 3.6233420238499243e+00 4.5439061149402038e+00 1.6298750908252632e+01 0 2 0
273 2 4.6699832849917842e+00 1.3815688175047680e+00 1.5202676247208737e+01 5 3 0
199 1 5.1659011479061041e+00 5.1192818574174570e+00 1.3117299552048852e+01 2 -3 0
452 1 6.2350761511042183e+00 1.1269584906489671e+00 1.6380553892905759e+01 0 1 0
270 2 3.5969139368079999e+00 5.2677350867149384e+00 1.5607216757145540e+01 0 2 0
201 2 6.0629315907024131e+00 5.2940808261229764e+00 1.3276746043083913e+01 2 -3 0
260 1 7.4437813999592406e-01 8.4852344217127396e-02 1.6056954583456442e+01 -2 2 0
281 1 3.7722471920870859e-02 5.8605316716734435e-01 1.3973683692380556e+01 4 0 0
325 1 2.3811665166290763e+00 4.3038424572347136e+00 1.2790940973292662e+01 0 1 0
444 2 1.2900586461836816e+00 1.9572640229812812e+00 1.8148795900940968e+01 -2 1 0
448 1 2.2159697774471208e+00 1.7469715685169540e+00 1.9872880268358962e+01 3 0 0
375 2 5.0899158788484096e+00 3.7051367208144046e+00 1.9482690159743900e+01 -4 0 0
264 2 3.2450953829976409e-01 5.2782567437982539e+00 1.9609604415947178e+01 2 3 0
374 1 4.3080632643193564e+00 4.4116403007832155e+00 1.9577782831688786e+01 -4 0 0
443 1 1.1268447033181492e+00 1.0819996076667207e+00 1.7736137238085298e+01 -2 1 0
515 1 5.0847915333738518e+00 2.3972614597639765e+00 2.0293535555407363e+01 0 1 0
373 1 5.9053807404089245e+00 4.2052953964384630e+00 1.9199000360882700e+01 -4 0 0
450 2 2.4278183605584776e+00 1.2834357447528455e+00 2.0698013025932493e+01 3 0 0
442 1 4.0125286151184603e-01 2.4620433955342520e+00 1.8046315188842915e+01 -2 1 0
395 1 3.4613151881068291e+00 1.3719404757622411e+00 2.0835923438799920e+01 1 1 0
359 1 4.3451121335391711e+00 3.2923297212146228e+00 1.8031615695911004e+01 0 3 0
323 1 2.0604947724923104e+00 5.1013798028385144e+00 1.9697780157237442e+01 -1 0 0
324 2 3.0060995835147142e+00 5.2628880134447229e+00 1.9931454164971552e+01 -1 0 0
358 1 2.8505602437177369e+00 2.7809646028700308e+00 1.7766361828309439e+01 0 3 0
516 2 5.0252219354209373e+00 1.5589370934769444e+00 2.0851459568741557e+01 0 1 0
360 2 3.6693330261965227e+00 3.1142886998286330e+00 1.7304926369117016e+01 0 3 0
322 1 2.9796342496021984e+00 5.0492250772869358e+00 2.0938168905740390e+01 -1 0 0
343 1 1.1249141246810281e+00 2.2400986920245494e+00 2.4724785690939182e+01 -5 -2 0
457 1 1.6526999609442381e+00 1.7781150040736737e+00 2.2081012586822450e+01 1 2 0
425 1 4.3982828315648517e+00 1.1007840523422026e+00 2.4457198717660734e+01 -2 -1 0
302 1 2.1543022558185103e+00 3.7957478699949103e+00 2.2745917451538837e+01 -1 2 0
503 1 6.0403281509181692e+00 2.8148200099646248e+00 2.3570207588033274e+01 1 -2 0
301 1 3.3166092955256641e+00 4.9809861769402533e+00 2.3032118499428641e+01 -1 2 0
502 1 6.8236759089475925e+00 4.2256638057901483e+00 2.3179468935871434e+01 1 -2 0
424 1 3.7469382341273239e+00 2.5731494969542110e+00 2.4409530338372281e+01 -2 -1 0
459 2 1.3232467725966353e+00 2.4229866042519967e+00 2.2759151016472227e+01 1 2 0
303 2 2.4958955591789271e+00 4.7263884002524774e+00 2.2531869846285172e+01 -1 2 0
458 1 4.0315971552910074e-01 2.6272014621753663e+00 2.2599222026046949e+01 1 2 0
426 2 4.2973434248866171e+00 1.9324232263831644e+00 2.3852615251279655e+01 -2 -1 0
514 1 4.9386719997071236e+00 1.9255521605778352e+00 2.1729093602298693e+01 0 1 0
504 2 6.9409234164930318e+00 3.2678964980083789e+00 2.3513683480037116e+01 1 -2 0
186 2 9.8400205826001219e-01 2.9894733970969294e+00 2.8256329731999983e+01 4 0 0
169 1 2.9848609364391776e+00 4.8988853834584516e+00 2.6017955028115377e+01 3 -7 0
164 1 6.1892461211325580e+00 3.8447965758617517e+00 2.7072152906810221e+01 -1 3 0
165 2 5.3337706779858491e+00 4.3066276852189738e+00 2.7299523436879586e+01 -1 3 0
248 1 4.8104415226969142e+00 3.9967041525698281e+00 2.9171102045644631e+01 0 2 0
185 1 1.1157186879395533e+00 3.9541342490018243e+00 2.8280823333287906e+01 4 0 0
163 1 5.5785133990753852e+00 5.3307669645973101e+00 2.7132826141265618e+01 -1 3 0
210 2 6.8420169565305047e+00 5.0538817482228415e-01 2.6547105303966681e+01 1 2 0
170 1 3.7028824595928316e+00 3.6037225996121647e+00 2.6226579464609639e+01 3 -7 0
233 1 1.9723311410886566e+00 2.4703461485658695e+00 2.9248553519601195e+01 3 3 0
171 2 2.9322358924622249e+00 3.9457402335363372e+00 2.5716300589092963e+01 3 -7 0
209 1 6.5870290874155222e+00 3.6546837713450359e-01 2.7506910958654476e+01 1 2 0
344 1 8.8285121812231460e-01 2.2741277160154509e+00 2.6280691208127280e+01 -5 -2 0
386 1 5.1914621096031297e+00 2.4263603551785494e-02 2.9402316511330351e+01 1 -1 0
345 2 6.9112971638756748e-01 1.7514853668778037e+00 2.5501120089476320e+01 -5 -2 0
184 1 8.1530473021503624e-02 2.7974886819245408e+00 2.8615825499912599e+01 4 0 0
521 1 5.3661425536149219e+00 1.1991129568419545e-01 2.5819672648280012e+01 3 7 0
341 1 3.9749536085525001e+00 5.5185233286844753e+00 3.0656952687855977e+01 2 -6 0
181 1 2.6767621771925381e+00 3.6410047149228104e+00 3.3287707916652238e+01 0 -3 0
183 2 1.8314161805501301e+00 3.9675623538645541e+00 3.2915971218718241e+01 0 -3 0
461 1 6.0934119832198395e+00 3.5214272410055782e+00 3.2077061552910315e+01 0 -1 0
462 2 6.2748559298572086e+00 4.0677612351864330e+00 3.2839090201661307e+01 0 0 0
482 1 5.7092322627043508e+00 9.7621996885642948e-01 3.3043722378259474e+01 0 0 0
368 1 6.7917834971672129e+00 3.5380379616744642e+00 2.9864842277441028e+01 3 -1 0
348 2 1.7073964550098091e+00 1.3492336384533679e+00 3.2724558636032178e+01 0 0 0
241 1 1.2050020409761835e+00 2.1975506565801068e+00 3.2890249507005379e+01 0 1 0
347 1 1.0243456857038378e+00 6.9770336581618375e-01 3.2938009446615297e+01 0 0 0
52 2 4.3263567012119397e+00 2.1095713251278500e-01 3.3712683135730160e+01 0 0 -1
346 1 1.9900049769165198e+00 4.9094413075324468e+00 3.2784131966403116e+01 0 0 0
255 2 6.6509545982002098e+00 1.2572600849179651e+00 3.2940770866399170e+01 0 1 0
232 1 2.1098907623680065e+00 2.3564650756708811e+00 3.0827325222165214e+01 3 3 0
234 2 2.5695793224893491e+00 2.1243734397976022e+00 3.0049227517529737e+01 3 3 0
463 1 3.4823644485657228e+00 8.9439623371675459e-01 3.0607539026290237e+01 -2 -4 0
54 2 3.9251406937087756e+00 2.7895586132659567e+00 3.3822729008623540e+01 0 0 -1
249 2 4.6530666861505789e+00 3.8840109998472445e+00 3.0131883480540449e+01 0 2 0
247 1 3.7927598766288528e+00 3.3728962460429410e+00 3.0231791128031933e+01 0 2 0
465 2 4.1065449609207789e+00 1.3336824647154882e-01 3.0887887553331950e+01 -2 -4 0
254 1 4.1680935775029377e+00 9.3903243489092195e-02 3.2710029553517728e+01 0 1 0
253 1 6.9143345845642505e+00 9.6739722406484074e-01 3.2032872108880760e+01 0 0 0
55 3 2.7359263583947917e+00 1.0879432714110965e+01 3.2591683311744215e+00 0 -1 0
75 2 1.4999857143201145e+00 8.2942944978893465e+00 1.5280688156211928e+00 0 0 0
73 3 3.0085424074613281e+00 6.8581640274781153e+00 5.4582444549556075e-01 0 0 0
82 2 4.2932422420754452e+00 9.6914877848437602e+00 2.5554054715560541e+00 0 0 0
129 2 6.0452627399302603e+00 6.4369083509889160e+00 3.9780218835142844e+00 0 0 0
128 3 5.1168642235593902e+00 7.9959544054442118e+00 3.3234224418521796e+00 0 0 0
81 2 1.3851980000659352e+00 6.4853428417382890e+00 4.1270054836415806e+00 0 0 0
84 2 3.8027849944737273e+00 7.0431555400241779e+00 2.5121732731497048e+00 0 0 0
122 3 5.0259272869732090e+00 9.6969190493922195e+00 9.4362428611009319e-01 0 0 0
101 2 6.6457982714893680e+00 1.0768947343447715e+01 1.5869030001630684e+00 0 -1 0
123 2 6.0632757078290656e+00 8.1059542014586192e+00 1.5873240841363720e+00 0 0 0
80 3 5.6201051673160729e-01 8.0150519264919691e+00 3.2213052879776183e+00 0 0 0
74 3 3.0339477997066583e-01 9.5990007148061878e+00 7.8732519646722898e-01 0 0 0
83 2 1.9553137514916132e+00 9.3335411609095615e+00 4.0340255133505805e+00 0 0 0
53 2 2.0247886956334535e+00 1.0962997909823674e+01 1.5571071001830334e+00 0 -1 0
76 2 4.1963614880680797e+00 5.6451843945972060e+00 1.0756921272645793e-01 0 0 0
131 2 6.5619710077926987e+00 9.3782761923155231e+00 4.1624148531120779e+00 0 0 0
78 2 3.8455112226257575e+00 8.3542178191768137e+00 1.8843115665454491e-02 0 0 0
92 3 6.5453233040573000e-01 1.0182848201045449e+01 8.2874423208472354e+00 0 0 0
89 2 1.9716243658760841e+00 7.5445329300897299e+00 6.5797976573582568e+00 0 0 0
85 3 2.9338842830783909e+00 9.2314923812104652e+00 5.7437091624286589e+00 0 0 0
86 3 3.5530491190567620e-01 6.5757967711922785e+00 5.8183268061190860e+00 0 0 0
91 3 2.8037953013104606e+00 7.4850972564056244e+00 8.1458492702686307e+00 0 0 0
134 3 5.2604303943041186e+00 6.4670249717172217e+00 5.9749956022876249e+00 0 0 0
96 2 3.7188397186809188e+00 9.1625848466083859e+00 7.5987908356405471e+00 0 0 0
88 2 4.3956974122113657e+00 8.1794984869098339e+00 5.0865017786127238e+00 0 0 0
94 2 4.3260723060901167e+00 6.4388713595999638e+00 7.7214439607507819e+00 0 0 0
140 3 5.3720511692808746e+00 1.0151161005945690e+01 8.2871692292278052e+00 0 0 0
135 2 6.0365585164301745e+00 1.0494229058612317e+01 6.6633736112724256e+00 0 0 0
87 2 1.4878569012836884e+00 1.0403631690650133e+01 6.5599166536282718e+00 0 0 0
137 2 6.5585898883693101e+00 7.5775066388801600e+00 6.6953726526068351e+00 0 0 0
66 2 3.6511828094961190e+00 1.0964023925211976e+01 5.1468641612548325e+00 0 -1 0
408 2 4.0422263322292249e+00 1.0375321762885081e+01 1.0094112238078205e+01 0 0 0
493 1 4.6957840816145620e+00 8.1190848234099615e+00 1.0239793267974727e+01 6 -2 0
494 1 3.2749436584039566e+00 8.2818017605726215e+00 1.0871341486304647e+01 6 -2 0
141 2 6.1923273926883260e+00 8.8458586351787680e+00 9.1495143786243691e+00 0 0 0
292 1 5.8284246555870212e-01 7.3349218895630264e+00 1.1561463459365054e+01 1 0 0
143 2 6.5002257932028380e+00 5.9844915821434848e+00 9.1541570551149380e+00 0 0 0
495 2 3.8912634154320429e+00 7.6590961292778328e+00 1.0442117550984944e+01 6 -2 0
293 1 3.7522530701916035e-01 7.2980383147468944e+00 1.0005250563145072e+01 1 1 0
95 2 1.9427547205437714e+00 6.0209713827752660e+00 9.1065726891937668e+00 0 0 0
93 2 1.4780564032511980e+00 8.8143941058317861e+00 9.0152080718358647e+00 0 0 0
250 1 1.6065197627346868e+00 1.0536557604281871e+01 1.2413957066567335e+01 1 -3 0
407 1 3.0742670327361767e+00 1.0692322343115322e+01 9.8364476592560770e+00 0 0 0
251 1 3.2970666925700431e-01 1.0998498863836311e+01 1.1677903494866834e+01 1 -3 0
392 1 6.8010093205968349e+00 6.8083301175345214e+00 1.2979935648900199e+01 -1 4 0
357 2 5.8257313063609217e+00 6.5059857201516573e+00 1.6888114735650365e+01 -2 4 0
179 1 2.3511745013061334e+00 8.1174770600480510e+00 1.2801555029561994e+01 0 -1 0
224 1 4.4178347307805312e+00 9.7138579702171359e+00 1.6225685413658823e+01 4 7 0
225 2 3.6953856749454488e+00 1.0016744458048279e+01 1.5560957147642503e+01 4 7 0
284 1 3.5022376275409841e+00 9.6289653172786132e+00 1.3994338408156391e+01 1 -4 0
326 1 2.4815588230412788e+00 5.8046826326422547e+00 1.2892513728313551e+01 0 1 0
314 1 2.0348691233117964e+00 6.4210769803258438e+00 1.5707331607206941e+01 0 0 0
178 1 1.3359000382538884e+00 7.3152749752182595e+00 1.3748815117421783e+01 0 -1 0
180 2 1.5320098616819260e+00 7.4755637388007328e+00 1.2812479888320569e+01 0 -1 0
355 1 6.6425702085906542e+00 6.0975799543817297e+00 1.6515292079160808e+01 -2 4 0
313 1 4.9735578139927589e-01 5.9832426621659378e+00 1.5949403943808420e+01 0 0 0
356 1 5.0816168539805817e+00 6.1528648586929844e+00 1.6392048164913451e+01 -2 4 0
315 2 1.0973856655430090e+00 6.7724486258722738e+00 1.5816104314914343e+01 0 0 0
223 1 2.8465675236370380e+00 9.8998426002851847e+00 1.5986073977118489e+01 4 7 0
261 2 1.2439043347537999e+00 1.0507009843579642e+01 1.6645588474695966e+01 -2 1 0
285 2 3.3225834421177134e+00 9.3995091282069332e+00 1.3057637600647688e+01 1 -4 0
283 1 4.2675266153089133e+00 9.2418593804538318e+00 1.2819812280150964e+01 1 -4 0
330 2 2.4882863993105636e-01 7.7808555011023541e+00 1.8266328794890953e+01 4 -1 0
306 2 5.2541803473570230e+00 9.6636387433499618e+00 2.0217727749031873e+01 1 4 0
304 1 5.3401062679759033e+00 9.2372444264581954e+00 1.9287950136343106e+01 1 4 0
305 1 5.3177166865613783e+00 1.0707555972738882e+01 2.0149929423043957e+01 1 4 0
216 2 2.3917575326764786e+00 9.5034464313893672e+00 1.9640353540924604e+01 2 2 0
214 1 3.3047285255973309e+00 9.0896980019636366e+00 1.9623618284148112e+01 2 2 0
227 1 6.1028630884391832e+00 7.3452066845310675e+00 2.0092507601617150e+01 -1 0 0
215 1 2.6525956805040076e+00 1.0445296215118564e+01 1.9625477227543644e+01 2 2 0
205 1 4.7605944407082923e+00 6.8926121387752390e+00 1.8309574525382338e+01 2 -1 0
206 1 3.7538769168070525e+00 6.6484951766255271e+00 1.9498662992585249e+01 2 -1 0
328 1 9.3949244578497038e-01 8.3868631792683939e+00 1.8644129829936375e+01 4 -1 0
207 2 4.2978335787997839e+00 7.3548195412857114e+00 1.9051039262990408e+01 2 -1 0
263 1 2.2819652183279956e-01 6.2462006859116963e+00 1.9306516273005439e+01 2 3 0
329 1 6.1955099421794713e-01 7.2411437939230447e+00 1.7495640899781598e+01 4 -1 0
174 2 5.6404070784609033e+00 9.2456327683300259e+00 1.7251434838794545e+01 1 1 0
259 1 5.7236987461661382e-01 9.9627105168940311e+00 1.7072763756482676e+01 -2 1 0
173 1 5.9271738838767902e+00 8.2679371268690769e+00 1.6976417665336356e+01 1 1 0
172 1 6.3004399129491437e+00 9.8459922413706451e+00 1.6970372140321132e+01 1 1 0
435 2 9.2349072185158276e-01 8.9138538008054731e+00 2.2253451171299158e+01 1 -2 0
522 2 4.5152991504560935e+00 1.0878831353807431e+01 2.5339328822010515e+01 3 6 0
416 1 4.9307284901566009e+00 8.4856954585145399e+00 2.3373428437962755e+01 3 -2 0
414 2 6.4957356298089008e-01 6.5058205324484817e+00 2.3617782269969759e+01 2 4 0
473 1 3.9132400152707350e+00 6.6221421468181525e+00 2.4544721592506868e+01 -4 1 0
434 1 1.5563145253740478e+00 9.1462266624282886e+00 2.1546507147029178e+01 1 -2 0
417 2 5.5224178383820943e+00 9.2954788040652350e+00 2.3215843687395729e+01 3 -2 0
415 1 5.3594357169530973e+00 9.4623292072129974e+00 2.2201305961877193e+01 3 -2 0
520 1 4.8518171069672063e+00 1.0171701554004828e+01 2.4605775427829208e+01 3 6 0
352 1 1.1294869605399036e+00 9.7535438664633354e+00 2.4037465043858322e+01 -2 5 0
472 1 5.3661556452794592e+00 6.5900510683032589e+00 2.3775421545303875e+01 -4 1 0
413 1 1.1919243150849463e+00 5.6272207048554455e+00 2.3479373110654379e+01 2 4 0
474 2 4.3538672600760950e+00 6.6826064710186550e+00 2.3587266954903800e+01 -4 1 0
433 1 9.1415317643958860e-01 7.9316548384427374e+00 2.2530439212408361e+01 1 -2 0
353 1 1.2383359541738028e+00 1.0900613895696948e+01 2.5154341020042672e+01 -2 5 0
507 2 6.7518219055733715e+00 5.9941822536952323e+00 2.3038145652355855e+01 2 -1 0
354 2 9.8451027156683835e-01 9.9090968583653964e+00 2.5004508341947940e+01 -2 5 0
412 1 1.7004302613930949e-01 6.3859793931408415e+00 2.4501780145084421e+01 2 4 0
506 1 6.9644972658121231e+00 6.4335191532048288e+00 2.2190932525162559e+01 2 -1 0
401 1 3.3734689128364836e+00 1.0070920774059804e+01 2.6437067621477247e+01 2 -5 0
385 1 6.0381297902348843e+00 9.8933469577518540e+00 2.8953635347022818e+01 1 -2 0
276 2 1.0658448579147903e+00 5.5647526756001291e+00 2.7785942410084477e+01 0 -4 0
400 1 1.8762517719190768e+00 9.4999470725317554e+00 2.6198177653256494e+01 2 -5 0
338 1 3.1000630412588928e+00 9.0611571420915524e+00 2.8470821391536134e+01 1 -1 0
309 2 5.9972863978541184e+00 6.9818055183532719e+00 2.6959053060649932e+01 -1 1 0
387 2 6.0228075431622869e+00 1.0866265449584883e+01 2.8914713476156724e+01 1 -2 0
421 1 2.9145011051152876e+00 7.5394474117838008e+00 2.6467774603535229e+01 -1 1 0
423 2 3.2612919057097649e+00 6.6112828582576366e+00 2.6441747065108462e+01 -1 1 0
336 2 2.5637172774423256e-01 8.9873498741873536e+00 2.9528429970435912e+01 4 -4 0
307 1 6.4157053205261940e+00 7.3354425746396625e+00 2.7726398584498586e+01 -1 1 0
402 2 2.7578255788577590e+00 9.3759933841741265e+00 2.6713711620014664e+01 2 -5 0
422 1 4.1043665756511301e+00 6.8099776447246141e+00 2.6819582044291362e+01 -1 1 0
275 1 3.7360930719245672e-01 5.9058609303848764e+00 2.7086897695551766e+01 0 -4 0
405 2 6.3661245992662732e+00 8.2625456851969208e+00 2.9377070460125541e+01 1 -9 0
335 1 1.2536778888950617e+00 8.8275996114422917e+00 2.9552124718719949e+01 4 -4 0
274 1 1.9972472390050240e+00 5.9364376894117674e+00 2.7544064551753262e+01 0 -4 0
308 1 6.6424239753929077e+00 7.0011620624257498e+00 2.6224095787661245e+01 -1 1 0
490 1 9.2042713493466466e-01 6.0260491407491648e+00 2.9324877559208183e+01 3 -1 0
339 2 3.0458354982726923e+00 8.9337310085975226e+00 2.9464998235739703e+01 1 -1 0
380 1 1.4054246736419267e+00 8.7727181511421968e+00 3.2425420945486280e+01 1 2 0
440 1 5.5141536423399904e+00 6.4791338144475015e+00 3.3253616049295388e+01 0 -1 0
489 2 1.8840092370548858e+00 6.8151563129283703e+00 3.2837463000719872e+01 0 0 0
439 1 5.7296608251277314e+00 8.6140513628432842e+00 3.2294590200635653e+01 0 -1 0
441 2 6.4064561843509420e+00 6.6832726541194987e+00 3.2907736737127152e+01 0 0 0
464 1 3.6840261895346105e+00 1.0348737943289942e+01 3.0582674492719640e+01 -2 -5 0
342 2 3.5386933371558631e+00 6.4200537827946480e+00 3.0633492196755096e+01 2 -6 0
488 1 2.6412333864040876e+00 9.1247922260209560e+00 3.3205251639061764e+01 0 -1 0
487 1 9.5120168644680525e-01 6.6296447093274349e+00 3.3187277184734242e+01 0 0 0
243 2 1.8054780264655770e+00 9.5540507711793321e+00 3.2841241397258194e+01 0 0 0
483 2 6.0118139461531932e+00 9.4874730133298932e+00 3.2748243140682355e+01 0 0 0
340 1 3.0525682693799814e+00 6.3927823676418516e+00 3.1517064889858705e+01 2 -6 0
492 2 2.8751427661830631e-01 6.3877141487159168e+00 3.0091287087644261e+01 3 -1 0
491 1 7.7788103585710489e-01 6.3633331106334676e+00 3.0922098611847645e+01 3 -1 0
334 1 1.1827497335874787e-02 7.9963273488420432e+00 2.9696860853893657e+01 4 -4 0
481 1 6.5543448627349905e+00 5.6928368826472528e+00 3.2672607003387128e+01 0 0 0
182 1 6.8543841576751587e+00 9.2265933245098655e+00 3.3208361992444367e+01 0 -4 0
337 1 3.4547248414596545e+00 8.0709269642834673e+00 2.9794872191811962e+01 1 -1 0
403 1 5.7234645144893763e+00 7.7937361830140990e+00 2.9957931991833604e+01 1 -9 0
1 3 1.2498924288576484e+01 1.3904150564275590e+00 6.0134728093883449e-01 -1 0 0
29 2 1.1213856392565873e+01 5.4808557533619000e+00 1.4548289975469126e+00 -1 0 0
10 2 1.3529682804914167e+01 4.1941397258860533e+00 2.4787976807663905e+00 -1 0 0
9 2 1.0815592671826979e+01 9.3479211839344545e-01 4.0578096484581305e+00 -1 0 0
8 3 1.0053921010796321e+01 2.5296179894254252e+00 3.1646808220721874e+00 -1 0 0
12 2 1.3049385491661813e+01 1.3326283370188279e+00 2.3282402096577055e+00 -1 0 0
108 2 8.5157616956129907e+00 1.1853064670959121e+00 2.4927047377992286e+00 0 0 0
3 2 1.0767443370547014e+01 2.6748746650404178e+00 1.5277136697705578e+00 -1 0 0
11 2 1.1313082459943965e+01 3.7018909874130221e+00 3.8736055406513614e+00 -1 0 0
106 2 8.8910724272302755e+00 4.1084886755602597e+00 2.5387401153014046e+00 0 0 0
97 3 7.7238415505004028e+00 1.5519562427702793e+00 8.3954771271712525e-01 0 0 0
2 3 9.6575120965599073e+00 4.2353531214489086e+00 8.2597751451531898e-01 -1 0 0
127 3 7.3268247417613610e+00 5.1349289493217842e+00 3.2188794561832172e+00 0 0 0
31 3 1.2066825296773835e+01 5.5140862486086331e+00 3.1124714569767531e+00 -1 0 0
102 2 8.3712510272700111e+00 3.1256068150976271e+00 1.0893497555656226e-01 0 0 0
6 2 1.3239415414868514e+01 2.9719873522159639e+00 1.6685462950242425e-02 -1 0 0
17 2 1.1272943360792304e+01 2.1840888815514043e+00 6.4250948238536454e+00 -1 0 0
20 3 1.0052963801383012e+01 4.7459909631857098e+00 8.1367840982871886e+00 -1 0 0
15 2 1.0785281202492632e+01 4.9278508747814680e+00 6.3875158523409530e+00 -1 0 0
14 3 9.8001937270768256e+00 9.0633796848280079e-01 5.7224868250445997e+00 -1 0 0
24 2 1.3070287697131807e+01 3.6946211859465481e+00 7.5001596415452090e+00 -1 0 0
13 3 1.2347996595376777e+01 3.6945135961790898e+00 5.6355786141215409e+00 -1 0 0
118 2 8.9273131502224370e+00 8.4619062420949143e-01 7.6027684753936011e+00 0 0 0
19 3 1.2027572624392324e+01 1.9254768385811099e+00 8.1752433925905379e+00 -1 0 0
120 2 8.4963627146421388e+00 3.6486453645641275e+00 7.5668180222870447e+00 0 0 0
16 2 1.3538667007633171e+01 2.4364660500979816e+00 5.0584291946247779e+00 -1 0 0
112 2 8.8704500661317276e+00 2.4323745945266366e+00 5.0833117420438398e+00 0 0 0
109 3 7.6610694876358503e+00 3.6993682444337912e+00 5.9145660218204039e+00 0 0 0
22 2 1.3549704689417059e+01 9.2378865521167919e-01 7.4769227273876311e+00 -1 0 0
42 2 1.3059464934488757e+01 5.3570223285654093e+00 4.9754642003526559e+00 -1 0 0
138 2 8.4166260222319522e+00 5.2271364773519853e+00 4.9672450093630198e+00 0 0 0
115 3 7.4162474068735325e+00 1.8989897752223528e+00 8.3686325986947807e+00 0 0 0
319 1 1.2903352146366638e+01 2.4722279091681774e+00 1.0632444945327752e+01 -1 1 0
294 2 1.3199983313516436e+01 1.8585874208468691e+00 9.9814835167608287e+00 0 1 0
376 1 9.4942770224193840e+00 2.5535595673505158e+00 9.7742087523722123e+00 0 0 0
331 1 1.0809475484904597e+01 3.5282441224907202e+00 1.1565875669971851e+01 0 -2 0
389 1 1.2489152876808049e+01 5.1153309903916862e+00 9.7122508565621875e+00 1 3 0
23 2 1.1119672787337947e+01 5.3858630256497253e-01 8.9242935528433769e+00 -1 0 0
219 2 9.1698235599238274e+00 4.9603586303411769e+00 1.0246662794215647e+01 0 0 0
290 1 8.1787483986606198e+00 2.4671886207334421e+00 1.0868525664030098e+01 2 -1 0
21 2 1.0878314998679544e+01 3.2742336613729144e+00 8.9131843448233443e+00 -1 0 0
366 2 8.6115096344545190e+00 2.0213444531983806e+00 1.0076088830036575e+01 0 0 0
365 1 8.2090154108757893e+00 4.7649199317026065e+00 1.0152306224887374e+01 0 0 0
384 2 1.3401694495968291e+01 4.9006212829580607e+00 1.0065584104563126e+01 -1 0 0
297 2 1.0895632048268800e+01 3.2033037872803827e+00 1.2508903779132647e+01 0 0 0
496 1 9.9340614021259928e+00 5.4127621570306985e+00 1.2481317487439840e+01 -3 3 0
198 2 9.1732645161163067e+00 3.1630888950070524e-01 1.2659050827333864e+01 1 -3 0
318 2 7.4648445134509167e+00 3.2438205732321772e+00 1.2638933489253318e+01 2 3 0
196 1 9.3794843604041258e+00 1.3222145754984223e+00 1.2537880090331841e+01 1 -3 0
394 1 1.1875412493927925e+01 3.1339880446138380e+00 1.2696086867950996e+01 0 -1 0
188 1 9.9292244972221528e+00 3.4389002776986231e+00 1.4052330522720530e+01 1 1 0
187 1 9.5840698054668838e+00 2.7275984194144542e+00 1.5340412048196676e+01 1 1 0
242 1 8.1599132210133440e+00 4.5318003550178316e+00 1.5608621947293932e+01 1 1 0
160 1 8.6010814572675347e+00 1.2511626600888623e+00 1.6452293440291136e+01 -1 2 0
189 2 9.1540583993235494e+00 3.3192581840169533e+00 1.4652543691928093e+01 1 1 0
280 1 1.2637209434504307e+01 2.9263583350734845e-01 1.4795543675534509e+01 3 0 0
176 1 1.3056513674788095e+01 4.4766184990220266e+00 1.5138037947807764e+01 2 -3 0
162 2 9.6069284679559530e+00 1.3201905335877167e+00 1.6244817687053285e+01 -1 2 0
528 2 8.1709137173249218e+00 5.0819822320481487e+00 1.6429813755587098e+01 1 0 0
471 2 1.3146668638855099e+01 3.3043068665194446e+00 1.3875009306490776e+01 1 -5 0
175 1 1.2945966982472541e+01 4.4098481385236905e+00 1.6727356298253341e+01 2 -3 0
526 1 9.0716049676395780e+00 5.3985670426754515e+00 1.6461506130453618e+01 0 -1 0
470 1 1.3167641184844843e+01 2.4249334720259474e+00 1.4351480409282162e+01 1 -5 0
177 2 1.2977981185850025e+01 5.0406811459928926e+00 1.5943208331862056e+01 2 -3 0
282 2 1.3473065665008697e+01 8.0190405022627964e-01 1.4770616914093967e+01 3 0 0
317 1 7.9428125625391548e+00 2.9831213253718563e+00 1.3464857540735022e+01 2 3 0
453 2 7.0708167045756838e+00 7.6227613849200360e-01 1.6757706953564131e+01 0 1 0
469 1 1.3864022493019279e+01 3.3466176427575665e+00 1.3184612723814677e+01 1 -5 0
485 1 1.0179547347261197e+01 2.4432375114963825e+00 1.9517997680523390e+01 -3 0 0
431 1 1.2297052121720114e+01 2.8000464632637709e+00 1.8310161263069872e+01 -4 -1 0
195 2 7.5455183677664603e+00 3.7895052655128136e-01 1.9175296860298737e+01 0 1 0
266 1 8.0731073106023494e+00 4.5085043089483996e+00 1.9354471502740417e+01 2 -1 0
190 1 1.3695998104582298e+01 6.4670498730791470e-01 2.0212308250129549e+01 -1 7 0
153 2 9.4765466284037263e+00 4.2609507234970359e+00 2.0429358524445529e+01 2 -1 0
486 2 1.0700940720861109e+01 1.9761716899338635e+00 1.8873237625062316e+01 -3 0 0
484 1 1.1184857258977427e+01 1.2734399958151625e+00 1.9268181847465808e+01 -3 0 0
430 1 1.3303972719021800e+01 3.9938095725413350e+00 1.8842109240435285e+01 -4 -1 0
265 1 7.6521504586506026e+00 4.7543840159792161e+00 1.7883329022736742e+01 2 -1 0
192 2 1.2723395073503919e+01 8.3298932229888689e-01 2.0346408710163914e+01 -1 7 0
432 2 1.3100752872499600e+01 3.3568366310671611e+00 1.8115957054878411e+01 -4 -1 0
152 1 9.4953471866819363e+00 5.1285694240950681e+00 2.0864291497549509e+01 2 -1 0
267 2 7.3969801556733401e+00 4.9258110710901564e+00 1.8806629822380593e+01 2 -1 0
151 1 9.1036258143295381e+00 3.5441899882991219e+00 2.1017705981988758e+01 2 -1 0
193 1 7.6815545197273876e+00 8.9018169033142591e-01 2.0020506726035592e+01 0 1 0
161 1 1.0075688096851783e+01 1.5902377355493265e+00 1.7085456845488171e+01 -1 2 0
191 1 1.2401870249158412e+01 4.6408357607537198e-02 2.0932744132025189e+01 -1 7 0
451 1 7.1233058705716727e+00 7.1984692470831868e-01 1.7773045937049293e+01 0 1 0
262 1 1.3791995909822191e+01 5.2622106545863963e+00 2.0453728902234630e+01 1 3 0
445 1 1.2202556297405650e+01 2.2831484492545111e+00 2.1767505183087312e+01 1 4 0
466 1 9.0830077977391177e+00 1.1974777076347281e+00 2.2491010306118465e+01 -3 6 0
437 1 1.0575530086862928e+01 6.6867376065083872e-01 2.4581091035839894e+01 -1 1 0