LAMMPS data file via write_data, version 5 Jun 2019, timestep = 1020000

600 atoms
3 atom types

0.0000000000000000e+00 1.1408130000000000e+01 xlo xhi
0.0000000000000000e+00 1.1408130000000000e+01 ylo yhi
-1.1975780300000025e+00 4.8532678030000000e+01 zlo zhi

Masses

1 1
2 16
3 47.86

Atoms # atomic

79 2 3.6212045660206686e+00 3.4894201580118236e+00 -2.8287554771907902e-01 1 1 0
35 2 1.7708602951658625e+00 5.5567102356575715e+00 4.7427787813270577e+00 1 1 0
98 3 3.5863653158019497e+00 5.3529932197968089e+00 -6.9856959891850656e-01 1 1 0
77 2 3.4932843219826943e+00 3.5452578140100375e+00 3.8454095528490697e+00 1 1 0
78 2 5.3603419021855787e+00 3.4865915476978939e+00 2.2410270105860803e+00 1 1 0
6 2 1.4943972806641874e+00 3.7012943342312679e+00 2.3136528005700336e+00 1 1 0
104 2 3.4438570200158356e+00 5.4018541036055883e+00 1.4768428179492323e+00 1 1 0
4 3 1.5762932367285463e+00 3.6923320911649791e+00 4.2367237653850980e+00 1 1 0
80 2 3.1726571094588261e+00 1.7673704158056762e+00 1.3413108543902097e+00 1 1 0
11 2 1.4009851705695211e+00 1.7948977208209624e+00 4.6356440989271999e+00 1 1 0
73 3 3.4888858275066865e+00 3.6371396811680037e+00 1.8770260383826123e+00 1 1 0
76 3 5.4175031591562295e+00 3.6125361264677092e+00 4.3051354601433554e+00 1 1 0
74 3 2.9829306474691633e+00 1.7134218929503882e+00 -6.7703650030483586e-01 1 1 0
83 2 5.5887173629173024e+00 1.8361709713053942e+00 4.6852354455584759e+00 1 1 0
107 2 5.3334872471990566e+00 5.5890381556270210e+00 4.8105811381303454e+00 1 1 0
125 2 3.3769255277998655e+00 2.2776163951212122e-02 3.7430092983479266e+00 1 2 0
9 2 1.1810471204800994e+00 1.7740619130706778e+00 -1.0286111303909236e+00 1 1 0
33 2 1.6108992107224633e+00 5.5116457199167286e+00 -8.0736212238669103e-01 1 1 0
12 2 1.4177731845933919e+00 3.6178436502406521e+00 6.3119834349134338e+00 1 1 0
75 3 5.3027190400287267e+00 1.8462539701818073e+00 6.7994521309934655e+00 1 1 0
93 2 5.2230824919772507e+00 1.7386341065372029e+00 8.7762777643788716e+00 1 1 0
86 3 3.3330713021068914e+00 1.5655345344645877e+00 9.1388061441705446e+00 1 1 0
91 2 3.3518956359608580e+00 3.5413690146593217e+00 9.6928976759578163e+00 1 1 0
21 2 1.4280828751946737e+00 1.7407897567111665e+00 8.7615292810232859e+00 1 1 0
3 3 1.5140521714856312e+00 1.8075057146993729e+00 6.6479207900722326e+00 1 1 0
99 3 5.1939872763480706e+00 5.5918698229048713e+00 6.7376534880969636e+00 1 1 0
82 2 3.3482120656438101e+00 1.8014105079749319e+00 7.1427330347892397e+00 1 1 0
110 3 3.3538690779274787e+00 5.3679598830088819e+00 9.2256629663666470e+00 1 1 0
84 2 5.4332823433258524e+00 3.6680124671513910e+00 6.3268636943243202e+00 1 1 0
45 2 1.4167626383561722e+00 5.5638622254917287e+00 8.7306376415220797e+00 1 1 0
117 2 5.1899698530848921e+00 5.3035470448515047e+00 8.7664702264601111e+00 1 1 0
27 3 1.3878409182967515e+00 5.5607870767770571e+00 6.7642538808105837e+00 1 1 0
106 2 3.3861980041470683e+00 5.4021913912714359e+00 7.2577709022666461e+00 1 1 0
132 2 5.1579442136881974e+00 2.5067843900826135e-03 6.2976478316303712e+00 1 2 0
116 2 3.1336701540570395e+00 5.6131618024331189e+00 1.1124660229014561e+01 1 1 0
89 2 3.1811865813981552e+00 3.5592811896990928e+00 1.3566890182298966e+01 1 1 0
85 3 3.2469238474743403e+00 3.6386635093727677e+00 1.1716548151318399e+01 1 1 0
88 3 5.1685787635493510e+00 3.3673597067759773e+00 1.3931231098530331e+01 1 1 0
39 3 1.6217542083869478e+00 5.6281608986054854e+00 1.6583340611270430e+01 1 1 0
23 2 1.3366108164127908e+00 1.7577559324649625e+00 1.4576685371656309e+01 1 1 0
47 2 1.5061137655435142e+00 5.6217348196890837e+00 1.4574324683660420e+01 1 1 0
15 3 1.2639543736973260e+00 1.7840112287345218e+00 1.6496202433258638e+01 1 1 0
87 3 4.7875813650146677e+00 1.6503722881296941e+00 1.6399670918790196e+01 1 1 0
24 2 1.1420544654156608e+00 3.6425513702789423e+00 1.6046834642605493e+01 1 1 0
16 3 1.2823563461814818e+00 3.7172070063449674e+00 1.4102137396771509e+01 1 1 0
94 2 3.1421369906497278e+00 1.8490732121368880e+00 1.6871480640880254e+01 1 1 0
18 2 1.3219724714835144e+00 3.8073342913377566e+00 1.1939569049991970e+01 1 1 0
95 2 4.8625430883021563e+00 1.6231514360568584e+00 1.4311856296723976e+01 1 1 0
96 2 5.2484448446389544e+00 3.4699716779707428e+00 1.6075610572776071e+01 1 1 0
90 2 5.2482438496320913e+00 3.5597219019607320e+00 1.2059914889582366e+01 1 1 0
119 2 5.1626841412132238e+00 5.4599668398162500e+00 1.4416008655158793e+01 1 1 0
111 3 5.0575325847513328e+00 5.3288081515733312e+00 1.6313730919395038e+01 1 1 0
118 2 3.3364315083474554e+00 5.2997077649611972e+00 1.7039596878530777e+01 1 1 0
92 2 3.2052845085929991e+00 1.7005363858444931e+00 1.1298123441449318e+01 1 1 0
591 2 3.9732050554866039e+00 7.7489997690096246e-01 2.2064208703551241e+01 -3 -10 0
531 2 1.3553406702749540e+00 1.2005771978013058e+00 1.8744200033449168e+01 1 -14 0
581 1 4.7975543005563264e+00 4.7773582050113523e+00 2.2724845561814785e+01 -4 -4 0
265 1 4.5866415295207501e+00 4.8350924701469500e-01 1.9080282980782329e+01 2 0 0
330 2 1.2651615128052243e+00 1.6653066065992184e+00 2.1512504975826719e+01 -2 -6 0
473 1 3.8807816878503414e+00 4.4693216612136251e+00 1.9812785720044619e+01 -4 -5 0
257 1 5.2151259076822072e+00 2.4627350271016075e+00 1.8787693853480580e+01 5 -9 0
590 1 3.8195180617497400e+00 2.9441431355370717e-01 2.2950417184251702e+01 -3 -10 0
328 1 1.2148109717989308e+00 1.8620411027593116e+00 2.0517617253864348e+01 -2 -6 0
530 1 5.6727921069752452e-01 5.7925168130218230e-01 1.8763581961416278e+01 1 -14 0
486 2 5.6615584423902088e-01 3.4448976613237372e+00 2.3544010576237017e+01 -5 -4 0
474 2 4.4682781641385878e+00 3.6737449500548243e+00 1.9958239382156449e+01 -4 -5 0
319 1 2.2331225580809093e+00 1.2218358987934295e+00 2.1572569310142981e+01 5 -5 0
589 1 4.3971266802715316e+00 1.6001265934842361e+00 2.2250614657376044e+01 -3 -10 0
582 2 5.4421992570718869e+00 4.0323158531031744e+00 2.2738783717721258e+01 -4 -4 0
529 1 2.0195856808826154e+00 6.9423900583986742e-01 1.9085021287057558e+01 1 -14 0
496 1 6.5427611085232795e-01 2.9766874833164483e+00 2.2620966577902632e+01 -1 -15 0
266 1 4.1554435130503196e+00 1.3450770639561627e-01 2.0556639536460494e+01 2 0 0
472 1 4.7966352353002524e+00 3.8023585141935659e+00 2.0883875781950358e+01 -4 -5 0
234 2 5.6142776031416952e+00 1.7583729683316967e+00 1.8258978998828830e+01 -2 0 0
46 2 6.9290249405167470e-01 5.5878244055589121e+00 1.8225593575967572e+01 1 1 0
448 1 5.0330760561714873e+00 3.6315544777541509e+00 2.7520373320334112e+01 -3 2 0
404 1 1.8727662265777325e+00 2.9184827640224946e+00 2.8180995805742370e+01 -11 -4 0
360 2 3.6098863543260324e+00 3.1786057639283811e+00 2.8655076900924769e+01 -8 -8 0
485 1 1.2025421960126894e+00 2.9108389518850681e+00 2.4206581028281267e+01 -5 -4 0
449 1 5.3230793173400954e+00 3.4749596252096988e+00 2.5950082828238902e+01 -3 2 0
403 1 1.2044512277145571e+00 2.4820186703690492e+00 2.6915478006339367e+01 -11 -4 0
481 1 4.5054910243709134e+00 5.1708717208782975e+00 2.6487772319187354e+01 -1 -1 0
579 2 4.7878109943899547e+00 2.4111568600295028e+00 2.4666103739336243e+01 -9 2 0
336 2 2.1839050664773705e+00 1.8358170874820969e+00 2.5204935842335352e+01 -6 -4 0
505 1 1.8649332502331974e+00 9.1153387109999062e-01 2.5337099536866035e+01 -13 -3 0
405 2 1.0375076190433306e+00 2.5857724132763833e+00 2.7877499032568089e+01 -11 -4 0
335 1 3.2013280666238693e+00 1.9856872431353725e+00 2.5071067858861877e+01 -6 -4 0
221 1 4.5847936761571937e+00 2.1448306209999310e-01 2.9375804164836605e+01 -6 -6 0
232 1 1.9974361844754556e+00 5.0523048984995411e-01 2.8469654698343678e+01 -4 0 0
303 2 2.0785419478216522e+00 5.6723454003848692e+00 2.3850751924881347e+01 -3 3 0
577 1 5.1984380470759906e+00 2.7844317566113967e+00 2.3837412610326744e+01 -9 2 0
359 1 3.9409694186417701e+00 2.3301806205308369e+00 2.8927066307468252e+01 -8 -8 0
482 1 3.4394985780735214e+00 5.4915279282605445e+00 2.5287387619456606e+01 -1 -1 0
302 1 1.4214900546387124e+00 4.7896685126645844e+00 2.3790694092339880e+01 -3 3 0
358 1 3.5436296497668383e+00 3.7655857156376955e+00 2.9487897682460815e+01 -8 -8 0
343 1 5.5304703206825527e+00 1.6954609238842994e-01 2.6791748960848896e+01 -8 -2 0
578 1 5.3815026412147233e+00 1.7016367198769553e+00 2.5104747947678430e+01 -9 2 0
222 2 5.0037852591266878e+00 1.0634302717467123e+00 2.9653946936496144e+01 -6 -6 0
351 2 4.2932014819878130e+00 5.2618995345147752e+00 3.3220640811791270e+01 -3 -12 0
546 2 8.0915561619526233e-01 1.5105621562690716e+00 3.1353990851226690e+01 -6 1 0
561 2 3.4875098449118913e+00 5.2487930049992828e+00 3.0466257941254952e+01 -1 2 0
544 1 9.7055210855500251e-01 2.4084324221157192e+00 3.0944441732202762e+01 -6 1 0
539 1 2.6450380742447894e+00 4.5495378361878167e+00 3.4114250256323267e+01 -4 -11 0
574 1 1.5339684274109826e+00 9.6760664329672041e-01 3.4591838504849669e+01 -8 -8 0
411 2 3.5902871707376344e-01 2.2039478238142465e-01 3.5404997507511517e+01 -3 -10 0
250 1 4.7784899197170940e+00 2.5877865853271467e+00 3.5663823968528021e+01 7 1 0
540 2 1.7965485203748530e+00 4.1226515345263799e+00 3.4389962907393851e+01 -4 -11 0
575 1 2.2583288535474217e+00 2.3442476021521448e+00 3.4064832269012413e+01 -8 -8 0
576 2 2.0856651496126006e+00 1.4496049276863048e+00 3.3864675025047895e+01 -8 -8 0
545 1 1.1369634709882754e+00 1.7203505419254852e+00 3.2257315049697745e+01 -6 1 0
560 1 3.7761983238325261e+00 5.0523240512635805e+00 3.1385232917102261e+01 -1 2 0
349 1 5.1699252367521922e+00 4.8249965145581388e+00 3.2949261033415603e+01 -3 -12 0
251 1 4.6619261358948423e+00 1.0592765721235959e+00 3.4815093733484254e+01 7 1 0
337 1 2.4410455664453151e-01 4.9281607823342224e+00 3.1053823780126617e+01 -3 -6 0
252 2 5.0416086169943330e+00 1.6411114082059213e+00 3.5606481004635341e+01 7 1 0
331 1 3.0502985463056413e+00 1.2664806622665423e-01 3.3801039091012420e+01 -4 -2 0
220 1 5.3220843486943759e+00 9.4735446827060288e-01 3.0590464267441664e+01 -6 -6 0
538 1 1.7168652092821322e+00 4.5593349971737798e+00 3.5266714989470422e+01 -4 -11 0
283 1 4.9626342907439591e+00 2.8004106980995885e-01 3.2655035136329225e+01 -2 5 0
585 2 4.4797120957512426e+00 1.9530298327094053e+00 3.8773420131950942e+01 -4 11 0
307 1 8.5441933615095444e-01 3.5557173400705659e+00 3.7293056799449744e+01 -1 -5 0
308 1 9.9839710505280732e-01 3.3871217969236338e+00 3.8750550694861261e+01 -1 -5 0
584 1 3.9096676213520505e+00 2.1203908099149738e+00 3.9624083825901522e+01 -4 11 0
600 2 4.7387742630116323e+00 3.9917980409054952e+00 3.6722743132993436e+01 2 1 0
583 1 3.8505039233785974e+00 2.3126020566721608e+00 3.8055003991336577e+01 -4 11 0
270 2 3.0473922721008848e+00 2.2374559444071109e+00 4.0912165542388500e+01 14 -10 0
402 2 5.6044538275939293e-01 3.8143573159731115e+00 4.0283069694086834e+01 -2 -11 0
269 1 2.1642372086942534e+00 2.4775823863946607e+00 4.0670074484158974e+01 14 -10 0
543 2 4.6332138432382690e+00 4.9404443583521003e+00 4.0672824338677280e+01 -2 -3 0
542 1 4.3534523329479997e+00 4.0370127222716388e+00 4.0837782952932237e+01 -2 -3 0
293 1 3.1134265234254612e+00 1.3779544487159181e+00 4.1391099481508952e+01 4 -3 0
309 2 1.2958210025746764e+00 2.9248119355388655e+00 3.7929029173957431e+01 -1 -5 0
541 1 3.7563257638790892e+00 5.3952854357340119e+00 4.0389226654347389e+01 -2 -3 0
401 1 5.9742579738971924e-01 4.7852263333073592e+00 4.0544397117920788e+01 -2 -11 0
598 1 5.3598939746341623e+00 4.1214758039751294e+00 3.7451646026364941e+01 2 1 0
506 1 7.4728574445878160e-01 1.3240868431262087e+00 3.8201732725002479e+01 -6 -7 0
599 1 4.0873316620447548e+00 4.6555347841718540e+00 3.6886681596031941e+01 2 1 0
452 1 4.4307995721777997e+00 2.8033026206605038e-01 3.8489808646377647e+01 0 -2 0
519 2 4.1462003153317389e-01 3.9998457084351952e-01 3.8290876422900574e+01 2 -8 0
410 1 4.0263143685430214e-01 2.8311737597010611e-01 3.6380096628135114e+01 -3 -10 0
439 1 6.0197615620735459e-02 3.5023268157250684e+00 4.4866557271523675e+01 2 -4 0
219 2 3.0895546398239597e+00 2.3915230093182491e+00 4.4922252773292719e+01 -3 -6 0
218 1 2.1415583171459414e+00 2.7546690164762193e+00 4.5003153422227768e+01 -3 -6 0
386 1 4.3265065102804368e+00 2.8255034554135046e+00 4.3303812519854382e+01 -1 1 0
441 2 6.7965752752921371e-01 3.8237068969927512e+00 4.4249341586899156e+01 2 -4 0
325 1 2.7523686489007013e+00 6.4210461769569016e-01 4.4589088186498266e+01 -7 -5 0
242 1 4.8195758816087553e+00 1.5626505238185733e+00 4.7473436024142430e+01 0 5 0
507 2 3.8768459024883417e+00 1.7612177616612894e+00 4.7484359747216047e+01 -5 -2 0
273 2 3.3752255462385792e+00 5.1861753741868712e+00 4.7153797351994854e+01 -1 -3 0
440 1 2.6084420362484773e-01 4.1927825882705188e+00 4.3402019937305106e+01 2 -4 0
217 1 3.4562515463584158e+00 2.2913915653021557e+00 4.5861608249744393e+01 -3 -6 0
395 1 5.4871961601946251e-01 2.5914849903889712e+00 4.7407235332114624e+01 -3 3 0
434 1 5.2935467246694046e-01 1.1325161186665836e-01 4.3793389658104608e+01 -1 -2 0
272 1 4.2179429520677276e+00 5.1618150644083185e+00 4.6687573617355490e+01 -1 -3 0
387 2 5.1700355322063523e+00 3.1841256305208558e+00 4.3024672422407789e+01 -1 1 0
247 1 9.9693589678392958e-01 5.1724496845738024e+00 4.5173846679226379e+01 5 3 0
341 1 5.7012683046884272e+00 3.4017969279783746e+00 4.4558464590556731e+01 -5 -3 0
518 1 2.0636717841478673e+00 5.6947037596498653e+00 4.6219902212043181e+01 3 -6 0
97 3 3.3305701391916562e+00 7.3504434179670453e+00 1.7618853108584496e+00 1 1 0
129 2 5.1728224463545729e+00 9.2892721410659949e+00 -1.1112519215103862e+00 1 1 0
103 2 3.4264930259245019e+00 7.3676870888036943e+00 -1.8352105189369561e-01 1 1 0
127 2 3.3072772642354260e+00 1.1263172323405989e+01 -2.1639570729580979e-01 1 1 0
124 3 5.2676054602348827e+00 1.1315821501592060e+01 4.2492489957682196e+00 1 1 0
100 3 5.2655081476824321e+00 7.5449617891716549e+00 4.4698032444760489e+00 1 1 0
28 3 1.4753952464467075e+00 7.3815761301071277e+00 4.2617044425574289e+00 1 1 0
102 2 5.2258386676259843e+00 7.4996806683456576e+00 2.3284929660385609e+00 1 1 0
57 2 1.5118862833137112e+00 9.1737910722503120e+00 -1.0518666067174014e+00 1 1 0
101 2 3.3393519547697728e+00 7.6087119102409568e+00 3.9454726086614453e+00 1 1 0
54 2 1.4258265195030317e+00 1.1051028667359084e+01 2.3748863996656397e+00 1 1 0
30 2 1.5357450303709830e+00 7.4284439625862486e+00 2.1104405824523695e+00 1 1 0
122 3 3.3612011872314067e+00 9.2961850215053978e+00 -5.9760499749561269e-01 1 1 0
128 2 3.3429443709275302e+00 9.3853110732479639e+00 1.4072368629628367e+00 1 1 0
126 2 5.2867914211360736e+00 1.1358726128164243e+01 2.3289261884971699e+00 1 1 0
52 3 1.4716768288951279e+00 1.1273850135208637e+01 4.3541525565427737e+00 1 1 0
59 2 1.4317329251522792e+00 9.3649511462841684e+00 4.7623926689248410e+00 1 1 0
121 3 3.4628786385826107e+00 1.1239586542267894e+01 1.8082898517378760e+00 1 1 0
131 2 5.3292688713291243e+00 9.4914337014154473e+00 4.7975113835461363e+00 1 1 0
105 2 5.4681374097018978e+00 5.7123888682626083e+00 -9.9934433510203302e-01 1 1 0
141 2 5.1403597708016386e+00 9.4841809998881068e+00 8.7436060977822976e+00 1 1 0
115 2 3.3019839138756919e+00 7.4908035639297648e+00 9.6030967983582016e+00 1 1 0
134 3 3.2510763069775908e+00 9.2679317060831803e+00 9.2002762589414360e+00 1 1 0
51 3 1.4674995196553233e+00 9.3693464375781179e+00 6.6809998304946747e+00 1 1 0
130 2 3.2908382234672384e+00 9.4004480708153579e+00 7.2241682304466659e+00 1 1 0
69 2 1.4225889064578976e+00 9.4103529057841548e+00 8.7279951514382024e+00 1 1 0
139 2 3.2260161046816656e+00 1.1278368499056791e+01 9.6312620345012832e+00 1 1 0
36 2 1.5176066050168557e+00 7.4226388969727335e+00 6.3508650104845215e+00 1 1 0
123 3 5.2165841028479143e+00 9.5425405547687578e+00 6.8093176470444776e+00 1 1 0
108 2 5.2038667697240468e+00 7.4782614480548366e+00 6.3279346692792551e+00 1 1 0
60 2 1.3880346484740582e+00 1.1325795225921739e+01 6.2076423485576546e+00 1 1 0
42 2 1.3705022157836941e+00 7.6546744359237255e+00 1.2085611962112957e+01 1 1 0
120 2 5.0376535923618571e+00 7.3881111156979200e+00 1.5987251387106259e+01 1 1 0
112 3 5.1214201639926182e+00 7.3768058813335298e+00 1.4136043830506278e+01 1 1 0
63 3 1.5354166170720012e+00 9.4574725221440268e+00 1.6446536163132066e+01 1 1 0
71 2 1.2216375451329244e+00 9.3891140193332365e+00 1.4405946756361788e+01 1 1 0
48 2 1.4032609775046250e+00 7.4143567239063923e+00 1.6110674224730690e+01 1 1 0
114 2 5.2500241712128162e+00 7.6195105370964011e+00 1.2069778208097423e+01 1 1 0
109 3 3.3559415883723815e+00 7.4706105242153962e+00 1.1666161038757615e+01 1 1 0
40 3 1.3529711835845377e+00 7.5550881004381356e+00 1.3989258117578943e+01 1 1 0
142 2 3.2093639481702421e+00 9.5650804624094778e+00 1.6775044457336200e+01 1 1 0
113 2 3.2667246245840822e+00 7.4792781810548563e+00 1.3659426144220848e+01 1 1 0
135 3 5.0650715345434572e+00 9.3142601588999376e+00 1.6560981590302934e+01 1 1 0
133 3 3.1881983697939278e+00 1.1317783735463752e+01 1.1641872745780224e+01 1 1 0
136 3 5.1761822276657989e+00 1.1096384867384291e+01 1.4078493124926863e+01 1 1 0
143 2 5.1197637700818834e+00 9.2863548057624694e+00 1.4538705480572151e+01 1 1 0
137 2 3.2239196142517965e+00 1.1022462889164702e+01 1.3606675016355753e+01 1 1 0
64 3 1.3492448438486904e+00 1.1329760321856613e+01 1.3981946360149774e+01 1 1 0
72 2 1.2361657716634216e+00 1.1368136427636152e+01 1.5955951998204805e+01 1 1 0
138 2 5.2924926695209473e+00 1.1097215066497512e+01 1.2083124515590871e+01 1 1 0
144 2 5.2245494400924111e+00 1.1282166982753751e+01 1.6092419160264711e+01 1 1 0
66 2 1.2874453934032666e+00 1.1373600568660400e+01 1.1975926150613736e+01 1 1 0
140 2 3.3099448479683682e+00 9.3651195937410279e+00 1.1310982570770902e+01 1 1 0
224 1 4.9242049418045388e+00 9.5053123334092700e+00 2.3066764548033273e+01 -2 -3 0
363 2 4.9449560569180644e+00 9.0549202769639123e+00 1.8623001766060000e+01 -4 -6 0
361 1 4.4016830327897045e+00 9.8321077090833580e+00 1.8980994112161639e+01 -4 -6 0
373 1 1.0403315699003879e+00 8.8035463174179291e+00 1.8845878115490379e+01 2 1 0
70 2 7.2257605427560812e-01 9.5326956816585415e+00 1.8236388496764928e+01 1 1 0
494 1 1.1706950484861667e+00 7.9605291151060840e+00 2.0621090537161628e+01 2 -1 0
511 1 3.1455924214843178e+00 5.9917789034392612e+00 2.2353784539494271e+01 -4 -6 0
225 2 5.4493933549386782e+00 8.8284042406113148e+00 2.2626243365677698e+01 -2 -3 0
495 2 1.6837394909389805e+00 7.5833050106719231e+00 1.9825338350753452e+01 2 -1 0
512 1 4.2475083702606558e+00 7.1308858727040860e+00 2.2050369959325952e+01 -4 -6 0
493 1 2.5253988494798350e+00 7.3576989306344771e+00 2.0322338403831154e+01 2 -1 0
292 1 8.3996534377079490e-01 6.2671391705043007e+00 1.8960550409233417e+01 5 0 0
513 2 3.8820408737885077e+00 6.2619105761387610e+00 2.1747910531041608e+01 -4 -6 0
267 2 3.9853577774845075e+00 1.1265135497870002e+01 1.9657931260296998e+01 2 -1 0
348 2 7.4519798571786991e-02 8.7945599080345431e+00 2.1711475267996235e+01 -8 -11 0
310 1 5.6267978009147646e+00 8.2376548208520273e+00 2.3387717931841006e+01 0 -7 0
229 1 3.6119713542145765e-01 8.7672785152460104e+00 2.3643162607682644e+01 -3 -1 0
419 1 5.6666536950795097e+00 7.5431115764538026e+00 2.8029831178148665e+01 -15 -7 0
415 1 3.5432639812303264e+00 1.0715462447562038e+01 2.7276256911616901e+01 1 -5 0
239 1 3.8928389813901116e+00 1.0437959669672404e+01 2.5034661303632213e+01 -6 -2 0
372 2 2.4163519138138256e+00 7.9454532659885277e+00 2.7444286788400607e+01 -7 0 0
166 2 2.1798006995089287e+00 1.0962903912048859e+01 2.8185734940316163e+01 -1 0 0
391 1 1.6026729564958424e+00 1.0818843158675014e+01 2.7378187876874552e+01 2 -8 0
304 1 4.8875408920428427e+00 6.0785791254556374e+00 2.9684794486336653e+01 -3 -4 0
329 1 3.1088232383672567e+00 7.3744096922748428e+00 2.7015668226001839e+01 -16 4 1
371 1 2.9552715631214235e+00 8.3204630182835810e+00 2.8180870341415865e+01 -7 0 0
301 1 1.4984235125142846e+00 6.4191385420272269e+00 2.4062871681827321e+01 -3 3 0
459 2 7.6318346439019646e-01 1.1081621438615038e+01 2.5962870581728225e+01 3 6 0
227 1 7.6525779983115039e-01 8.5399432715457824e+00 2.8647917250951508e+01 -5 -5 0
378 2 4.2721535619081363e+00 1.0473769505540957e+01 2.6707625518993979e+01 -2 -8 0
483 2 4.0946586556676090e+00 5.8888662755583692e+00 2.5948994242583087e+01 -1 -1 0
238 1 2.8158172604250882e+00 1.0047307922574022e+01 2.3887183077175809e+01 -6 -2 0
347 1 6.7426188918814256e-01 1.0155734967083417e+01 2.5638575732396870e+01 -7 0 0
280 1 5.3870435728798309e+00 6.5252457634745200e+00 2.4962491464304581e+01 -7 -7 0
306 2 5.6442393541901312e+00 6.1450178258142190e+00 2.8996020970335060e+01 -3 -4 0
240 2 3.6854663394819402e+00 1.0441933214421049e+01 2.4087544786942495e+01 -6 -2 0
228 2 3.0313490823738293e-01 8.3274859086747988e+00 2.9516407893598103e+01 -5 -5 0
231 2 3.7154132186801703e-01 8.6239381234061820e+00 2.4603847799009131e+01 -3 -1 0
376 1 4.6047825581180097e+00 9.6349774951784752e+00 2.7018471252247629e+01 -2 -8 0
316 1 9.5602507719486662e-01 7.3244061874989335e+00 3.0658881853761109e+01 1 -4 0
470 1 1.2948369332589069e+00 8.7058300353332605e+00 3.4337247149935209e+01 -2 -3 0
332 1 3.3201206702314403e+00 8.3807967548347264e+00 3.3034365189660384e+01 -6 -1 0
278 1 3.9876498543793844e+00 1.0611975638592348e+01 3.4655787566398104e+01 -4 0 0
422 1 7.3182234919787359e-01 1.0985933011084860e+01 3.1334570069151429e+01 -2 2 0
350 1 4.5572508387547330e+00 6.1957785459011214e+00 3.3301763285898254e+01 -3 -12 0
259 1 1.5343842823729512e+00 6.7442331430715390e+00 3.2103201208468533e+01 0 1 0
333 2 2.3335612707918019e+00 8.3609666413385515e+00 3.2953631406343554e+01 -6 -1 0
354 2 4.9494045524480983e+00 7.8797630123202449e+00 3.4066365423448516e+01 -3 -3 0
471 2 7.1235135116743642e-01 8.9549244383035838e+00 3.5107960475628303e+01 -2 -3 0
409 1 3.6640456167927543e-01 1.0651382096129508e+01 3.5251270173507372e+01 -3 -11 0
444 2 3.8797363453425073e+00 1.0959153905955024e+01 3.3750228465267504e+01 2 -2 0
426 2 3.9464343618905220e+00 9.6338455375275025e+00 3.0070853008779462e+01 -1 0 0
497 1 8.5269301699028544e-01 9.5291993736034009e+00 3.0758753866071299e+01 2 -11 0
498 2 8.3441224174527184e-01 1.0040165941738731e+01 3.1643583458629578e+01 2 -11 0
443 1 1.9787608807322354e+00 9.0971096299697010e+00 3.2438798641241632e+01 0 0 0
289 1 3.5654819072364647e+00 6.7359496369084839e+00 3.6035928311703557e+01 0 4 0
408 2 1.2401665634803447e+00 6.5511169339456128e+00 3.1177215717472027e+01 -1 1 0
353 1 4.9046120376540108e+00 8.4184113634397608e+00 3.4901619427818929e+01 -3 -3 0
425 1 4.6364994371813042e+00 9.3865105797452113e+00 3.0682362381791535e+01 -1 0 0
559 1 2.6692626153854406e+00 5.7758034691869904e+00 3.0638346011498925e+01 -1 2 0
469 1 1.0885333342442687e+00 8.5012331381012629e+00 3.5892858677253187e+01 -2 -3 0
424 1 3.2143715690250261e+00 9.7982393262781340e+00 3.0716071005043876e+01 -1 0 0
489 2 1.1072911905815472e+00 7.8832331653854455e+00 3.7822507144447137e+01 2 -2 0
504 2 1.8990081497996485e+00 9.9876229993466570e+00 3.9425552897672446e+01 -6 -3 0
460 1 1.8189950456767752e+00 6.8353845936029280e+00 3.9381487663808954e+01 3 -2 0
389 1 5.2118255327154941e+00 1.0417303646631842e+01 3.9788839095213454e+01 -5 -3 0
290 1 2.3884925390635323e+00 6.4813997864274837e+00 3.6979252382173456e+01 0 4 0
487 1 1.1249859640945636e+00 8.5783852174462201e+00 3.8575170121242543e+01 2 -2 0
436 1 4.5421714973502008e+00 9.8047225840642689e+00 3.6996731621013360e+01 0 2 0
264 2 3.0098771026057980e+00 1.1012490077941152e+01 4.1753903086455338e+01 -1 6 0
502 1 2.1241653778744407e+00 1.0198920216701460e+01 4.0355657473733245e+01 -6 -3 0
461 1 2.0159919891993425e+00 7.0334092949749936e+00 4.0921538004883260e+01 3 -2 0
488 1 1.7718868194645812e-01 7.6379261816966517e+00 3.7892887930765760e+01 2 -2 0
262 1 3.8791215862285400e+00 1.0686575175738181e+01 4.1592610627592308e+01 -1 6 0
453 2 4.2764903273040904e+00 1.0733228913715253e+01 3.8296151633033688e+01 0 -3 0
390 2 5.3941044357439329e+00 1.0470606306227605e+01 4.0747957418034787e+01 -5 -3 0
462 2 2.1097381867954450e+00 6.4170323428018179e+00 4.0189075326986440e+01 3 -2 0
451 1 3.3397045629746285e+00 1.0529034699208815e+01 3.8629251126943821e+01 0 -3 0
503 1 1.3082082136871165e+00 1.0728930784702476e+01 3.9139930294256992e+01 -6 -3 0
291 2 3.0958188061344121e+00 5.9843178105938106e+00 3.6512994833767088e+01 0 4 0
315 2 5.0259663232858189e+00 9.2517950546030061e+00 3.6301992672758594e+01 -2 -6 0
438 2 3.1565968891488612e+00 9.3092083272328949e+00 4.6724970877715329e+01 -2 2 0
525 2 9.2196896593316913e-01 8.5363412270246357e+00 4.5513641418095297e+01 -2 1 0
523 1 8.1934274769826754e-01 7.4919595578396674e+00 4.5602681829062718e+01 -2 1 0
327 2 2.3692350314709634e+00 1.1099960244380936e+01 4.4428860146147969e+01 -7 -6 0
392 1 4.0164719609190014e+00 9.0059920347595366e+00 4.6280034414293169e+01 -1 -4 0
557 1 1.2942096716984066e+00 8.4831720547161549e+00 4.3323671166576936e+01 -3 -5 0
437 1 2.3051948286374020e+00 8.7739416292867958e+00 4.6406426403781602e+01 -2 2 0
320 1 2.5946058652634902e+00 7.4717114229820902e+00 4.3249440372339897e+01 -3 -4 0
536 1 4.5674977470390159e+00 6.8332698521496775e+00 4.4670512322856624e+01 -4 -2 0
321 2 1.7063312466539899e+00 7.8192175550887306e+00 4.2756724956419127e+01 -3 -4 0
524 1 2.5843288421824973e-01 8.9498826011122450e+00 4.6117513298940146e+01 -2 1 0
261 2 1.1741176864888174e+00 5.9315415589002152e+00 4.5815162522386451e+01 1 -8 0
537 2 4.0360203064107827e+00 6.6498269447265317e+00 4.3870155831837401e+01 -4 -2 0
326 1 2.5351132413726205e+00 1.0550820900823302e+01 4.5194616331774078e+01 -7 -6 0
263 1 2.9423528664037639e+00 1.0958934848116074e+01 4.2773956136755402e+01 -1 6 0
564 2 5.5996337401473282e+00 8.9496768676058096e+00 4.4930701410316487e+01 0 -2 0
535 1 4.1884196705217658e+00 5.7045845459539581e+00 4.3719859051527877e+01 -4 -2 0
556 1 3.2379708273979163e-01 6.4652128030609290e+00 4.2360312556290381e+01 5 -2 0
155 2 8.9090349445269883e+00 1.7409383665568561e+00 4.6803312892564710e+00 1 1 0
1 3 1.0965098495842026e+01 3.7274809664179589e+00 1.9669901557470304e+00 0 1 0
151 2 7.2291433343772722e+00 3.6240818020096364e+00 -1.1339110770130247e-01 1 1 0
148 3 9.0989802347228199e+00 3.7088696290456498e+00 4.3976276826293432e+00 1 1 0
145 3 7.1417035080504210e+00 3.6032925456641602e+00 1.8008963436174610e+00 1 1 0
176 2 7.1315153410714878e+00 5.4951380822609917e+00 1.4868991291030389e+00 1 1 0
149 2 7.2852999444370932e+00 3.8708523475556160e+00 3.8821385326456328e+00 1 1 0
146 3 7.5910497913961743e+00 1.8029766748209710e+00 -4.9125810582270218e-01 1 1 0
150 2 8.9862430561966242e+00 3.5715956694741542e+00 2.4087224209501503e+00 1 1 0
170 3 7.1594099041405057e+00 5.6412052927550267e+00 -5.3167289946271090e-01 1 1 0
152 2 7.3512052533009644e+00 1.7304226985604587e+00 1.4113066405830017e+00 1 1 0
2 3 1.0930531989960553e+01 1.6707103366553222e+00 -2.3032661347666897e-01 0 1 0
8 2 1.0981404855388107e+01 1.8256446806659774e+00 1.6108711742624859e+00 0 1 0
5 2 1.0993302386386171e+01 3.8369335992039035e+00 3.9766782675637540e+00 0 1 0
7 2 1.0861713745338342e+01 3.7202657831785366e+00 -3.6455083400168840e-03 0 1 0
26 3 1.1315309601775638e+01 5.5103000778186724e+00 -4.2528526247010956e-01 0 1 0
32 2 1.0983216389360701e+01 5.6528788754717798e+00 1.7062610323823799e+00 0 1 0
179 2 9.1401016041010532e+00 5.6982734921459484e+00 4.8651400143624493e+00 1 1 0
153 2 9.3075240853555439e+00 1.5242707521215584e+00 -1.0572478521513566e+00 1 1 0
53 2 1.0942683057324766e+01 3.2561378964837573e-02 3.9433990318079601e+00 0 2 0
178 2 7.0019045821895967e+00 5.6470231374739424e+00 7.3361986090386493e+00 1 1 0
171 3 8.9589957153339981e+00 5.5533675906746058e+00 6.9379411920248533e+00 1 1 0
154 2 7.1506753414113504e+00 1.6246055071059016e+00 7.2341939658694221e+00 1 1 0
165 2 9.1337754166675786e+00 1.8280017997896576e+00 8.6751281871754671e+00 1 1 0
158 3 7.2859554468511458e+00 1.7474508965302942e+00 9.1957446714423376e+00 1 1 0
14 3 1.0953596277708661e+01 1.8036531976093353e+00 9.1826640067142797e+00 0 1 0
156 2 8.9606863451507959e+00 3.7363148343475094e+00 6.3895809743691521e+00 1 1 0
147 3 9.1098589208594110e+00 1.7754336619309634e+00 6.6459202091755101e+00 1 1 0
163 2 7.3272003186292984e+00 3.6326689088832267e+00 9.6687745458045224e+00 1 1 0
10 2 1.0976543759141792e+01 1.8125672438239862e+00 7.0674302742257993e+00 0 1 0
19 2 1.0899721854086076e+01 3.6868083391099136e+00 9.6720791750333692e+00 0 1 0
38 3 1.1034009464276895e+01 5.6132468581884618e+00 9.1857006691368035e+00 0 1 0
182 3 6.9635427758378308e+00 5.6057415974544673e+00 9.3005209407767246e+00 1 1 0
34 2 1.0915260727541853e+01 5.4843132407955686e+00 7.1474574073569261e+00 0 1 0
20 2 1.0819219338477868e+01 1.7683457570891192e+00 1.1135438886463604e+01 0 1 0
44 2 1.0926263469672904e+01 5.6091008831771338e+00 1.1162436655556686e+01 0 1 0
189 2 9.0225612202737118e+00 5.6912833451150462e+00 8.8629496482208907e+00 1 1 0
168 2 8.6003358993975532e+00 3.5691750501342723e+00 1.6010631550329609e+01 1 1 0
13 3 1.0854120474609591e+01 3.7699368342601369e+00 1.1571780108384234e+01 0 1 0
160 3 8.9386596334988067e+00 3.6177905303475288e+00 1.4032986596135883e+01 1 1 0
159 3 9.0648191225894390e+00 1.7082843993007006e+00 1.6495940046487927e+01 1 1 0
167 2 9.0929924480312287e+00 1.8019932391491584e+00 1.4520294371441123e+01 1 1 0
22 2 1.0766656152872548e+01 1.8126149419471764e+00 1.6930618443741949e+01 0 1 0
17 2 1.0889838891445539e+01 3.7595966238282301e+00 1.3709395100373508e+01 0 1 0
183 3 8.3909751303361357e+00 5.4641677524188408e+00 1.6461716623679571e+01 1 1 0
162 2 8.9243391122620999e+00 3.8893550823124698e+00 1.2123972927986985e+01 1 1 0
161 2 7.0295705023891903e+00 3.4244621736900736e+00 1.3660116101464181e+01 1 1 0
157 3 7.1069119702355428e+00 3.7314578903338234e+00 1.1676150767304451e+01 1 1 0
191 2 8.7874861071363100e+00 5.4809684818376123e+00 1.4474391831176815e+01 1 1 0
190 2 6.7239225100160152e+00 5.4266330937717866e+00 1.7154406364935980e+01 1 1 0
164 2 7.0218050984754417e+00 1.8067467632943774e+00 1.1312684611236286e+01 1 1 0
188 2 7.0180840821774959e+00 5.6263171868922814e+00 1.1277684783855424e+01 1 1 0
431 1 8.3507021043765075e+00 8.7930431008940091e-01 1.8732548703936917e+01 2 -3 0