LAMMPS data file via write_data, version 28 Mar 2023, timestep = 5040000, units = real

744 atoms
3 atom types

0 13.161440743621954 xlo xhi
0 8.907608999999999 ylo yhi
0 62.8468 zlo zhi

Masses

1 1
2 16
3 47.86

Atoms # atomic

182 3 3.7850366319220403 1.7149215589266218 1.3252470830671832 0 0 0
304 2 2.5319728261059375 0.11565792236033386 1.0466094644283817 0 1 0
190 2 5.762941060426491 3.2880151281624856 4.287822216597499 0 0 0
310 2 5.7959386351292315 0.3404750385341827 4.330563900791342 0 1 0
191 2 3.870164435540962 1.8398056745515838 3.1342039100394965 0 0 0
129 2 1.800014759745301 0.21200343860336704 4.31226219110566 0 1 0
1 3 0.5309567845350037 3.2576270585467384 0.9558243366184487 0 0 0
9 2 1.8258700018268441 3.1616980114938156 4.423135196684102 0 0 0
184 2 2.5659322466549916 3.180958173349573 0.9537585242903731 0 0 0
315 2 5.164026115994623 0.24423866260283586 7.744500886620656 0 1 0
187 3 3.7060323984054744 3.255524639795174 4.543592906453492 0 0 0
192 2 3.789885187705506 1.792070168776506 5.7057818944224685 0 0 0
303 2 5.0234142212038115 0.26043468535662584 0.9610472014934311 0 1 0
183 2 5.070946354475219 3.2457492139649795 0.9288603322178354 0 0 0
307 3 3.901500939983358 0.2181932018134542 4.671742163551167 0 1 0
8 3 0.4990436391495242 1.6569439176514227 4.188678141103352 0 0 0
13 3 0.6594676207158964 3.4423428139400576 7.656217990264313 0 0 0
133 3 0.46690805117990264 0.4870938134328381 7.602216967639913 0 1 0
121 3 0.477247207104175 0.28748140794687227 1.0017311751167435 0 1 0
195 2 5.205096973051065 3.3211005663532904 7.697565505801949 0 0 0
6 2 0.6489155668223342 1.7154555846183888 2.448027915406982 0 0 0
17 2 0.3823750562469929 1.8027938392556355 6.38279548956785 0 0 0
196 2 2.656082238255031 3.3732625045528453 7.653204485955402 0 0 0
194 3 3.8420880442254113 1.676556470920358 7.814316257861064 0 0 0
316 2 2.572078441181622 0.25915036952241094 7.703351127367605 0 1 0
199 3 3.8885974343647276 3.3380366068484673 11.07198291611932 0 0 0
319 3 4.105811156447534 0.3270094760610572 10.98277319140265 0 1 0
20 3 0.5175972023519783 1.6064215951603773 10.882477979935825 0 0 0
204 2 3.9727422906070755 1.6920702452792287 12.249816021598853 0 0 0
207 2 5.143724345694474 3.364500790327777 14.489155917018667 0 0 0
208 2 2.6161687486668614 3.2674430316111027 14.104642582280896 0 0 0
21 2 1.8879079400719847 3.358713489653339 11.17192359311534 0 0 0
206 3 3.958944017730738 1.965772741012929 14.43570350591218 0 0 0
203 2 3.762295610250165 1.7670851101011025 9.654289901295918 0 0 0
328 2 2.38466883886626 0.316373004444011 14.163269509738672 0 1 0
202 2 5.8520824649238605 3.279343847398526 10.853547862483987 0 0 0
322 2 5.967345185210276 0.34839103941363875 11.023419960324556 0 1 0
327 2 4.9848370160751845 0.3396340117309828 14.261458129517054 0 1 0
141 2 1.9316246338547274 0.40868906550419326 10.947322870884863 0 1 0
18 2 0.6260476748258661 1.8613497376110844 8.973585353039901 0 0 0
29 2 0.4655118926164669 1.9854914814989535 12.960374319621732 0 0 0
25 3 0.5773994777428176 3.3392268537739134 14.227561547536332 0 0 0
145 3 0.5332552220960853 0.4871104328201647 14.244568703003297 0 1 0
30 2 0.4587671129346195 1.8971688666905944 15.606041010816744 0 0 0
32 3 0.43498758826220046 1.9638486889166584 17.530230213173287 0 0 0
214 2 5.7039350291438495 3.4203707085719897 17.591459594672187 0 0 0
33 2 1.7553797422049404 3.2877133192846033 17.635428105908733 0 0 0
220 2 2.569170474391159 3.365132254825799 20.848980470906596 0 0 0
227 2 3.9843625768459443 1.9674294187298809 23.012123447001773 0 0 0
219 2 5.195069703775562 3.390064516949416 20.82791591635628 0 0 0
215 2 3.8036183460132564 1.8981953254401216 16.341710738973223 0 0 0
216 2 3.790938718596883 1.8609260287120992 18.950874190079556 0 0 0
218 3 3.8133493844920014 1.9580448852706702 21.15269803244772 0 0 0
153 2 1.7072454061827502 0.4824296523298434 17.469810777354468 0 1 0
211 3 3.6717293303451295 3.3757272808074976 17.749145346948048 0 0 0
340 2 2.594094138407409 0.42431264426575327 20.939697820097166 0 1 0
334 2 5.771052267089249 0.23840302194178142 17.56570798519725 0 1 0
331 3 3.608419830892946 0.47116325380321655 17.7774005488741 0 1 0
339 2 5.033446243516049 0.4217763916957024 20.988607552756473 0 1 0
41 2 0.7343736076103765 1.8041709554488938 19.46562853208682 0 0 0
42 2 0.5707720772733658 1.800218651307168 22.119011801399488 0 0 0
37 3 0.6066777860180702 3.2391670358879554 20.689102751875886 0 0 0
157 3 0.6520902626395091 0.3544243066887548 20.69141591135523 0 1 0
231 2 5.237094860348139 3.5179799351365326 27.50338412186068 0 0 0
44 3 0.6973050022602548 1.9996490449818314 24.005456464582075 0 0 0
45 2 1.81342371295099 3.402887171246532 24.27159436867277 0 0 0
235 3 3.8307296989766364 3.454924974289915 30.94658408684458 0 0 0
228 2 3.9501875667154005 1.951204880657301 25.539787992108355 0 0 0
165 2 1.9922803532411568 0.5818915143394244 24.18817662631608 0 1 0
232 2 2.6671610107671304 3.4492894065177344 27.47286121943167 0 0 0
346 2 5.887256377312413 0.338760982187579 24.085954987295516 0 1 0
226 2 5.967163398603548 3.4833595463512617 24.116476500241156 0 0 0
223 3 4.075399764951492 3.49276357937225 24.33240780408152 0 0 0
49 3 0.767474487587337 3.484925325696116 27.426070564152496 0 0 0
57 2 1.8178646631238307 3.517735560404138 30.71088917518058 0 0 0
238 2 6.058019808887705 3.3819699857238485 30.886163562116735 0 0 0
239 2 3.9355306843151725 2.076510935833426 29.491622837927206 0 0 0
230 3 4.0729668642974275 1.9419580844824547 27.590234622569447 0 0 0
343 3 3.839918468939448 0.4566477006923142 24.286691629351587 0 1 0
352 2 2.5900133728659043 0.5180838463294682 27.56534868814235 0 1 0
56 3 0.6502674338806397 1.9370067326382596 30.68195018388799 0 0 0
351 2 5.1570783416393455 0.35714052100814564 27.46649892385683 0 1 0
358 2 5.970710593315871 0.4379288537533058 30.809865637827357 0 1 0
177 2 1.8318673466557214 0.5081304250637325 30.777077677321 0 1 0
53 2 0.516961435307798 1.9752969159357456 26.26297188706833 0 0 0
54 2 0.6715509997162471 2.0377819787176406 28.821483187490372 0 0 0
169 3 0.5934502189902138 0.5938325992067915 27.50963396359396 0 1 0
355 3 3.954696480525735 0.4937858175215135 30.867949938508918 0 1 0
240 2 3.77740740979823 1.9489694566159188 32.051669535925726 0 0 0
484 1 5.45791450605508 0.9420861456534287 36.829622924578246 -3 3 0
411 2 1.2933118486302069 3.024314890486483 36.800838865280106 -2 5 0
467 1 2.1111933732073003 4.123515115831246 34.85052781431258 2 -7 0
481 1 5.1305190525182285 2.546101819197371 38.688489477427474 8 1 0
518 1 2.6263501709364943 1.2948172396963227 34.17624268234539 -2 0 0
693 2 5.322011604555807 2.7477749917570837 34.47159215559254 3 1 0
730 1 1.3128586372656175 2.9859827199829505 33.17370846271851 1 0 0
691 1 4.507965421886303 2.269159418900754 34.796359076052774 3 1 0
482 1 4.448852488279013 2.923287495455507 37.40477104028894 8 1 0
505 1 1.2161267077463582 2.9463475158542867 38.84559597910533 3 6 0
732 2 0.9883288809696064 2.128193272802871 32.839602788067154 1 0 0
517 1 2.949347173589396 0.4112403316535088 35.22042966363591 -2 1 0
410 1 1.722693279258035 2.299374364501955 36.28298388851613 -2 5 0
483 2 5.191056438488638 2.3999972992480814 37.77637611792568 8 1 0
639 2 3.008275214805173 1.3315003356745692 35.07407365235399 0 -3 0
692 1 5.184743371388047 2.927412277379027 33.50112918802631 3 1 0
395 1 3.3050067634175733 0.6309345164030383 38.26291107870162 5 6 0
409 1 0.336755282296448 2.9347030632990316 36.627180244696945 -2 5 0
468 2 1.7540059857796522 4.385621641497846 33.97225451639026 2 -7 0
577 1 0.2700972908744601 1.7417918231376697 33.430394955865935 0 0 0
451 1 6.553532336112432 2.4172087737321517 35.25055042878616 0 3 0
486 2 5.507127476227131 0.002007308680378017 36.56686341524971 -3 3 0
461 1 1.3673688073039048 1.0016555621741605 40.85328032906574 6 7 0
397 1 3.0441868377488532 0.42011994694208654 43.192358581215345 1 6 0
463 1 5.338000724139168 0.4035312381423427 44.76127980170518 5 5 0
547 1 1.7660895176599878 3.5822140061684373 42.69781919331694 4 9 0
576 2 1.349640606711633 0.5561716661028426 46.123904762344466 3 2 0
476 1 3.9481818176193393 2.8350248520531363 40.89022161405798 0 -3 0
543 2 5.246632224298187 1.3649609065459751 45.061650877294696 5 2 0
575 1 1.7100913188877782 0.20202933371099646 45.24193467829828 3 2 0
634 1 0.5686155760559131 2.621411667016584 44.426612574628564 3 4 0
635 1 0.7811668515180524 1.3753862334636846 43.488641510814034 3 4 0
391 1 4.5246042186102375 2.0463423207395146 42.79152055048868 -1 7 0
475 1 3.960694366997085 4.308950880833005 40.32212924085976 0 -3 0
477 2 3.836151005072034 3.318298717198519 40.07454033094519 0 -3 0
393 2 4.02559949863202 1.37661386828515 42.27924069560446 -1 7 0
636 2 0.2581210562084871 2.211987861166287 43.57388383287353 3 4 0
462 2 0.7946327252181152 0.24022589098126015 40.879488171277906 6 7 0
542 1 5.956042166044583 1.8164496796105363 44.4883720627455 5 2 0
608 1 5.377458748834734 4.034614236035183 44.057305746314746 1 1 0
392 1 4.5494457871960154 0.5727234730141099 41.961351903850876 -1 7 0
506 1 2.249458630343876 3.3379329132876747 39.845820258760675 3 6 0
507 2 1.2551008177751117 3.1171899928726634 39.82769998909978 3 6 0
460 1 0.09789483909532126 0.5204854607353396 40.25120389414757 6 7 0
644 1 2.9889586078968398 2.2335116251985627 46.59033138399566 -2 -2 0
629 1 4.076632344744615 2.8339059534763025 45.62357516220182 0 -3 0
645 2 3.334819438681545 3.0925150282881493 46.145315426135724 -2 -2 0
609 2 4.9107250306615065 3.909819555853896 43.196183159578986 1 1 0
532 1 0.0704630550821399 3.150150564414936 46.67490633487667 2 4 0
719 1 5.503602963216618 4.3211330204655045 46.78520681844259 0 -2 0
565 1 6.226086713037967 4.265199225726534 41.95006088774235 1 -8 0
536 1 0.17963995402732869 2.5824956405245647 49.04069698103197 -1 1 0
435 2 6.258076181487621 0.32301236471226114 49.09398712393446 2 7 0
418 1 3.1387785491816746 4.070804097688926 51.969110105142626 3 0 0
739 1 1.498411060467325 2.788515146186033 52.7311064242925 -1 -4 0
535 1 0.6706972337469891 2.3026647974975707 50.50648399949569 -1 1 0
538 1 5.314187387380509 4.278971750860641 52.66923933100957 -2 -2 0
610 1 4.5606290645249485 1.0136558701810197 51.49020236143933 6 -5 0
384 2 4.330653037885482 1.2454559730750874 50.56743128242542 0 -7 0
417 2 3.0217354882974163 3.6103851570945107 50.36249705327855 0 -8 0
416 1 3.8083522456496435 3.226311872216583 50.02439037695203 0 -8 0
653 1 1.417368484124618 0.5472737811409775 49.44074268890601 5 -2 0
537 2 0.6040167959997939 1.9552668074839978 49.60884710431774 -1 1 0
383 1 3.5517881051432734 0.7575783823046222 50.301432871384755 0 -7 0
513 2 5.34111878852029 0.7465321651673719 53.2208320240106 -3 7 0
433 1 5.463416117699009 0.7549508915873858 49.51170292151739 2 7 0
740 1 0.18660965877637545 3.8295288132301235 52.73344313773149 -1 -4 0
705 2 2.5451176051506215 2.4271696483430074 54.634020250399786 -3 -9 0
741 2 0.6647130436880647 3.0765658919807426 52.26635391658162 -1 -4 0
550 1 2.7246363873191863 4.270550122482251 47.28578523600709 3 -7 0
368 1 3.075100676143514 3.7266959262271753 53.61712920178122 3 -5 0
402 2 3.403107356057147 4.395539328012536 52.93469947549222 -4 2 0
512 1 6.149192411842313 1.332972158959751 53.4086796193763 -3 7 0
415 1 2.744894681045853 4.2121347993511264 49.63766355999981 0 -8 0
540 2 6.234788005443732 4.450830502887305 52.359577392198254 -2 -2 0
587 1 4.854449657589492 0.89495248387844 56.711088392369795 2 2 0
688 1 4.99402194968201 4.137232293926439 57.911509738676315 1 -2 0
641 1 3.314006570060473 2.071091369792271 61.168081839405176 1 -1 0
704 1 1.9581868535026021 2.92124892505172 55.21243548117522 -3 -9 0
677 1 2.1634902124880906 1.5162400159732456 62.10690791948149 1 1 0
642 2 3.0884667534193793 1.4701119640694373 61.87587133154116 1 -1 0
5 2 0.6056998835189115 1.7284219994505596 62.73666851959758 0 0 -1
455 1 0.4922691272123835 4.239323389470504 55.62708667644944 1 5 0
440 1 2.3412113098624308 2.788902059490821 59.147904490967655 1 0 0
439 1 2.8845628153473126 3.624936042733825 60.2730527071822 1 0 0
374 1 5.829952002168071 1.6463733840803694 60.64361287500125 3 -5 0
375 2 5.685423102069212 1.8356084709996967 59.700259707239034 3 -5 0
718 1 4.922830479176894 2.430430192859467 59.5963660966295 5 -4 0
441 2 3.262810130634439 3.127123725835876 59.52887696197898 1 0 0
703 1 3.276147930478778 2.078819963536838 55.22376992997457 -3 -9 0
501 2 1.127689157416092 1.5874493263854839 58.68965986703254 1 8 0
456 2 0.9675830590286295 3.873287951010045 56.41999532305748 1 5 0
588 2 5.007547508310988 1.4807207192517176 55.9585147309672 2 2 0
499 1 1.7227536556369527 0.8363630241350816 58.62190405549066 1 8 0
401 1 5.700549299144607 0.5415836460638311 58.69528165187 -5 1 0
454 1 0.4454199850753914 3.299380859486789 56.91082981832151 1 5 0
500 1 0.4879746778677315 1.62470170928782 57.8896843793077 1 8 0
586 1 5.068250608999022 0.8820541475652581 55.19492445849506 2 2 0
73 3 0.5807444187779432 6.40268840479786 7.595079674640731 0 0 0
302 3 3.7643140287740082 7.638894791641932 1.2445924501481886 0 0 0
250 2 5.783745079516531 6.209844917517002 4.377233231155532 0 0 0
242 3 3.748462547440689 4.720306041985825 1.1269972104895936 0 0 0
247 3 3.944365887916262 6.229809007405665 4.364910636521427 0 0 0
244 2 2.5115722622896275 6.204411250994935 1.2537083783628684 0 0 0
312 2 3.8759665817585534 7.734883930183572 5.722159134416268 0 0 0
252 2 3.824674813387257 4.6989891896126075 5.660897348801135 0 0 0
256 2 2.565820992732761 6.369590810186573 7.681910251021912 0 0 0
137 2 0.5356995930289726 7.665985211581462 6.321514418732259 0 0 0
243 2 5.031641811671671 6.263199821217328 0.9494548511744499 0 0 0
69 2 1.9054593208134933 6.152538082676211 4.396321393338903 0 0 0
128 3 0.587554206403871 7.702389616413539 4.219238720173503 0 0 0
311 2 3.884878311889422 7.748852975020501 3.1716607978138835 0 0 0
61 3 0.41264767038162736 6.2076500033330655 1.0105146906142155 0 0 0
66 2 0.5882975213051427 4.638014669236247 2.4415852466508077 0 0 0
251 2 3.8519831682625165 4.804945664919126 3.138298487033024 0 0 0
68 3 0.5540579959375649 4.711239217808398 4.291811688607599 0 0 0
77 2 0.621359876366467 4.779088295137898 6.431457759678594 0 0 0
126 2 0.3671224782079446 7.600080174083799 2.4168649274274254 0 0 0
254 3 4.0640753913931595 4.711709927955413 7.787896458041775 0 0 0
255 2 5.177352076271586 6.293474290871949 7.737852376322761 0 0 0
324 2 3.7980715042420483 7.731130914659333 12.255686280230762 0 0 0
267 2 5.098729983774247 6.255859458941791 14.481568727790144 0 0 0
268 2 2.5288550841706945 6.258010970610529 14.149834928762873 0 0 0
81 2 1.9402190352555693 6.273688411742247 11.07274191358926 0 0 0
266 3 3.890108864033615 4.846691836674199 14.442861380924326 0 0 0
323 2 3.7768960878238014 7.764480123481331 9.739967259317051 0 0 0
259 3 3.858997678503753 6.307092214937782 11.075180024503299 0 0 0
78 2 0.565849401144126 4.769956301491925 8.976438830325096 0 0 0
326 3 3.696303448842879 7.889792239300313 14.32883396411451 0 0 0
262 2 5.85755523859656 6.300380259953743 10.933249846099207 0 0 0
138 2 0.7079926921993477 7.772788263283935 9.035039693248802 0 0 0
264 2 3.8744287951716667 4.81084478433022 12.32095801362282 0 0 0
263 2 3.8603632867147026 4.722179647630107 9.696775927351858 0 0 0
89 2 0.3630987102181675 4.805971188239573 12.901877848371164 0 0 0
140 3 0.7210636620430051 7.696151839384251 10.981424176836128 0 0 0
149 2 0.4706830917283492 7.851580990749127 13.005214293097742 0 0 0
85 3 0.5675296255320981 6.255879801607186 14.007783357022133 0 0 0
90 2 0.6249386636439273 4.845369678693469 15.501803311672974 0 0 0
80 3 0.6738183708226572 4.660424381711261 10.90957866984995 0 0 0
150 2 0.5475957775465374 7.789505270206283 15.518565465157982 0 0 0
314 3 3.836710096850875 7.633602192138524 7.91090932097515 0 0 0
274 2 5.8803849508485255 6.277107644057335 17.519535816594008 0 0 0
93 2 1.7886832438055416 6.287861506572201 17.529561020069895 0 0 0
161 2 0.6644903157372376 7.7357150335663745 19.546442509625688 0 0 0
335 2 3.757540290230589 7.918984594136571 16.261707126561728 0 0 0
336 2 3.620176505849638 7.823144555139615 18.830028412718207 0 0 0
280 2 2.5555760499747264 6.336721496778047 20.99759044364235 0 0 0
287 2 3.869928922804269 4.827647729530577 22.951876619526765 0 0 0
338 3 3.877987323182463 7.83557571087831 20.95949729908053 0 0 0
271 3 3.9751210398626644 6.440060415603444 17.433786275331265 0 0 0
347 2 3.88628043254765 7.825297746599229 22.91467314900534 0 0 0
279 2 5.175724614447385 6.2389261382608465 20.869626468061146 0 0 0
278 3 3.8066402934830905 4.933706990781893 20.861866274077144 0 0 0
276 2 3.8289911154187646 4.919545914657279 18.85992780059844 0 0 0
102 2 0.6403488014938294 4.751090044482586 22.037550396327784 0 0 0
275 2 3.6406996466497947 4.862074251547055 16.373675666505825 0 0 0
97 3 0.5216318512947755 6.292471148300621 20.746979527249582 0 0 0
162 2 0.5689145782630957 7.85186247445439 22.20975209703077 0 0 0
101 2 0.6227331731288805 4.785157622429195 19.46794746650901 0 0 0
152 3 0.5892514880987191 7.747688900882913 17.297356443367853 0 0 0
92 3 0.5339520474575393 4.884317685164492 17.47048333517114 0 0 0
283 3 4.044145120863401 6.452051925713199 24.208527071118514 0 0 0
348 2 3.8775352061386146 7.851151138692979 25.541998676544555 0 0 0
359 2 3.8012818408221194 7.900683847456341 29.504644421270815 0 0 0
295 3 3.7580844888952054 6.407759665600216 30.91669779489261 0 0 0
117 2 1.8319987671385114 6.4246979307270005 30.700265787564764 0 0 0
173 2 0.6466339328683038 8.088710448706278 26.24950665864406 0 0 0
299 2 3.9699227963082433 5.016047342532302 29.54918042945118 0 0 0
298 2 5.957594585732269 6.46071829895316 30.755453164386843 0 0 0
286 2 5.933529747708797 6.293737621245474 24.341121755728214 0 0 0
350 3 3.8275966189445585 7.855059881265107 27.603441401705215 0 0 0
105 2 1.8721777785192522 6.3643587160167545 24.055983369358245 0 0 0
291 2 5.113191550443221 6.3414727027712114 27.41853855814404 0 0 0
292 2 2.5552293927825565 6.393494781968162 27.549277737286147 0 0 0
114 2 0.6048445747629755 4.971886468098342 28.65016890870065 0 0 0
113 2 0.6755225522694841 5.000025974755056 26.127673699339667 0 0 0
104 3 0.638801045809214 4.911119341414784 23.94326611678304 0 0 0
290 3 3.918658529275302 4.936940727794634 27.492127106641405 0 0 0
176 3 0.5640111453251916 7.937556711208654 30.561143129987965 0 0 0
109 3 0.6485164863757975 6.487925830363187 27.202351454442088 0 0 0
164 3 0.6725336665159599 7.8826862845219035 24.086892005094352 0 0 0
116 3 0.5475466941402413 4.987594434880126 30.48507217365192 0 0 0
174 2 0.7196998443940896 7.811986715094129 28.770530322429256 0 0 0
288 2 3.76444039181572 4.809308901148092 25.530518266231805 0 0 0
615 2 5.316887913395937 6.495154944692501 38.06300515326404 2 -6 0
687 2 6.242207689985182 5.385523945942412 35.3202105340223 6 -2 0
360 2 3.730020804422778 7.9735437885552365 32.01459938069644 0 0 0
300 2 3.883276337190442 4.918643737263701 32.15016781314909 0 0 0
647 1 2.42152881656089 6.714993908402425 35.35151833201915 3 2 0
623 1 4.306542454378303 5.288640976372876 36.59439539412752 -2 4 0
613 1 5.062138410869565 7.459835885992848 37.82488237378725 2 -6 0
685 1 5.667634573940989 6.100313981552866 35.066368306466224 6 -2 0
706 1 2.0539026542744154 7.012575272004972 37.95149350341565 7 -1 0
686 1 5.659228281003834 4.650370352837327 35.46110655530072 6 -2 0
663 2 0.5779554968572346 7.856229510005099 32.94197736483333 0 -1 0
365 1 5.211023966231377 8.443195579273242 34.85408063301131 0 6 0
708 2 1.824105227412714 6.0251595445845565 38.02349565018094 7 -1 0
366 2 5.121096277353322 7.797708314731196 34.18024054800872 0 6 0
648 2 2.1090143159453705 7.632965800824553 35.2981786196219 3 2 0
364 1 4.4787199077182045 7.958996622293266 33.44243835855296 0 6 0
614 1 6.182121189181838 6.320415544636614 37.68151933886592 2 -6 0
624 2 3.580924745232407 4.6703119592913795 36.38827573280269 -2 4 0
646 1 1.4246852795955154 7.721312451839942 35.9813201007123 3 2 0
662 1 1.2780503578343103 8.098131505304572 33.54267374109681 0 -1 0
661 1 0.17602481916330834 5.468290249152606 34.308567681954294 0 0 0
466 1 2.439994818700598 4.815287371486821 33.42896168523117 2 -7 0
571 1 6.434500199600647 7.884988812290772 33.408704516300446 0 1 0
622 1 2.891374848132809 5.131943519248319 36.93363323088371 -2 4 0
485 1 6.452978807662142 8.754654402737566 36.44594431828543 -3 2 0
731 1 0.023557358955993014 7.1379530396264 33.44288363872097 1 0 0
396 2 2.9700955221114365 8.647002597761713 38.530157233223996 5 5 0
707 1 1.853310988553532 5.837010874030775 39.01759879800403 7 -1 0
549 2 1.8329934010277487 4.539463840831838 42.60344196865309 4 9 0
546 2 5.694644668366528 4.6567291930814285 45.85115635687315 0 -2 0
489 2 4.335984830878063 5.947792756513989 40.603014290309204 4 2 0
670 1 3.782131692179671 7.332178709702645 46.44221008263417 4 -12 0
594 2 0.36010756340932143 5.48001119330429 44.524484183629724 1 1 0
399 2 2.3567476573104313 8.756660251218007 43.65557417439207 1 5 0
563 1 5.56262328573121 7.065001000572967 44.66494305997641 1 -5 0
531 2 1.5553823189668252 6.264333144096708 40.684583082734555 3 -9 0
672 2 3.891406644635935 7.098494139286623 45.436646270834274 4 -12 0
492 2 5.6248902720793 8.075470800793696 41.68539647657198 0 -2 0
530 1 1.5041489758844646 5.645323688231109 41.43918745274078 3 -9 0
548 1 1.387890960433906 4.672196366884006 43.51063196234371 4 9 0
487 1 3.3604740393125585 6.140318510425648 40.54489016884657 4 2 0
490 1 5.077214160796383 7.439443126017341 41.215577030312325 0 -2 0
592 1 0.24107799612941427 5.468639977389603 45.50857441149906 1 1 0
491 1 5.896651236491905 7.8353810631394945 42.63192897162293 0 -2 0
488 1 4.710125888802268 6.104504911535973 39.68967409726491 4 2 0
564 2 6.359070213636377 7.332951663793785 44.10206330082043 1 -5 0
671 1 3.852740460416519 6.078644311702018 45.439383928877156 4 -12 0
398 1 2.864267385397034 8.017741557836562 44.04376725275782 1 5 0
574 1 1.1301842469821985 8.656120327083572 46.6150829262386 3 1 0
529 1 1.1709995070364998 7.149466730981308 40.9026082197946 3 -9 0
736 1 4.23854275900502 4.612870228331031 43.16320166593001 0 2 0
394 1 2.593114562638804 8.895463631758993 39.456288869777545 5 5 0
449 1 2.302012926420271 7.498324647850563 54.20917555322443 4 1 0
725 1 6.065999943192012 7.687684008564166 50.71983588534884 -1 2 0
380 1 0.17117290040804042 7.9519818385929355 52.06533578962556 0 0 0
381 2 5.399333080321653 7.0302906375983625 50.65468320570215 -1 2 0
652 1 1.5349699092234967 8.223540243991827 50.41833356988003 5 -3 0
559 1 2.4397142917751706 7.345087524533387 52.24414227746801 2 -1 0
473 1 4.643521758208608 7.13956667109422 51.33634504219527 -1 2 0
561 2 3.362579300292519 7.096113329084807 52.431670615331186 2 -1 0
680 1 0.5384210132353241 4.8880348216355465 47.80084507335424 -1 1 0
552 2 2.2554171504659433 4.782863547307449 47.958700928343156 3 -7 0
539 1 6.113408044637282 5.30838726026014 51.933541301955 -2 -2 0
450 2 1.7841681001249152 7.005492362871858 54.922018653208795 4 1 0
438 2 0.7032400515017697 7.126383988841948 51.84679592531071 2 -8 0
551 1 2.7456762909657364 5.671644321732536 47.995384108515445 3 -7 0
511 1 5.550829400164396 8.737556056771487 53.61273631650334 -3 6 0
527 1 6.01853351453924 5.169663781586967 49.50145276989851 2 -1 0
560 1 3.291935565245042 6.077859641221318 52.54463132284286 2 -1 0
678 2 3.4669609977680462 7.280424189744038 48.25637806807839 3 1 0
654 2 2.066508588398166 8.743030258070121 49.776985193851246 5 -3 0
602 1 0.3371175979847827 5.87975878497525 53.78665470303153 1 0 0
637 1 2.8858249872118766 7.911051249569245 48.80974819500675 2 0 0
676 1 4.36028141047326 7.264359246025572 48.6676930079711 3 1 0
528 2 6.383973734256378 4.5949532423662 48.802328427324845 2 -1 0
714 2 5.897868337212483 5.62366866360126 60.28439290043863 6 0 0
690 2 5.358855231559756 4.974328314685675 57.658109845777204 1 -2 0
721 1 3.2693010467152877 5.526342088035544 61.2731343734924 1 8 0
583 1 2.423617440038821 5.276414302173364 56.93235725842416 3 -9 0
474 2 2.981516178669575 6.086764983374266 57.01945790365074 2 -8 0
640 1 4.656008861986231 5.012214344050813 61.27851527245188 1 -1 0
437 1 4.945766378227579 8.012059895499982 61.88005355929566 2 -8 0
65 2 0.47330982368815594 4.791047975601658 62.737202474169976 0 0 -1
448 1 2.42512944718231 6.68080585119948 55.56733405525819 4 1 0
665 1 2.5713658396883163 7.769838852250896 57.68035642709817 -1 -1 0
712 1 6.275587790010612 6.0468141223596 59.43146036372416 6 0 0
388 1 4.541306069953763 8.422918729863456 58.72871596973536 0 -6 0
638 1 1.122510388962296 6.114230216692738 60.04469912151641 2 -6 0
720 2 1.9149120342495392 6.400348986612734 60.51259578205556 2 -5 0
369 2 4.028465430654738 7.8930882041405885 61.63085618002464 3 -5 0
379 1 1.586664654525641 6.925502184848684 61.31044159768572 2 -7 0
709 1 3.8878812638097053 5.736619565888652 57.13982652168417 4 -4 0
519 2 3.7821573760011766 4.780380281027482 61.75649956648704 -2 4 0
630 2 2.6147240660325743 8.260219027104828 58.56146949284304 1 -4 0
125 2 0.39777537024098647 7.654150004216794 62.77376987922052 0 0 -1
628 1 2.1954386180585757 7.74410399779983 59.223676365928775 1 -4 0
726 2 5.263372025360272 8.725758628424911 58.16901660571844 -1 -1 0
689 1 5.8002319449154 4.8057682840721005 56.80491359739786 1 -2 0
724 1 3.7286447133966942 8.81292553889227 61.46535794909613 1 -8 0
373 1 6.563793169872057 5.804210761182924 55.10057048355111 -1 -10 0
617 1 0.2750675804617764 8.33258423555935 55.15107041215132 3 1 0
421 1 6.498108443662122 7.665869265296495 58.17782053837406 0 4 0
3 2 11.780037650839606 3.3056009410215696 1.081454575114997 -1 0 0
11 2 10.486789854347155 1.8465397585410044 3.0616346013697298 -1 0 0
189 2 8.323482560865088 3.3038310729684337 4.497186981898479 0 0 0
127 3 10.417595471096657 0.1812892891600215 4.50399448681566 -1 1 0
16 2 9.129392368150263 3.2481339502654434 7.714024650763896 -1 0 0
2 3 10.336621251800263 1.717356410673151 1.2180419622454313 -1 0 0
193 3 7.138915690213144 3.282718570354788 7.794832511777393 0 0 0
197 2 7.176077402839999 1.8632160259177004 6.527604479845737 0 0 0
7 3 10.530353813341883 3.1330529709532797 4.371644463986499 -1 0 0
309 2 8.369481899410655 0.2747242226568226 4.220512772286652 0 1 0
4 2 9.209484507156084 3.1207406147942405 0.915512036896433 -1 0 0
12 2 10.319262376345803 1.7390184985359896 5.60581252938987 -1 0 0
313 3 7.109956584670592 0.4041205333124489 7.539575845268791 0 1 0
10 2 12.442552253038476 3.1922685058343787 4.416662793532981 -1 0 0
136 2 9.19454654152899 0.21825127473943828 7.650564534361163 -1 1 0
130 2 12.341074970600541 0.20026378151450808 4.427174048888636 -1 1 0
124 2 9.12514371781673 0.19454488781376095 0.9787984280484848 -1 1 0
301 3 7.116853457717219 0.1883521765449643 0.8141023287937782 0 1 0
188 3 7.124509381969814 1.8793415102237236 4.143559494675704 0 0 0
123 2 11.658874604236981 0.19986113964536464 1.1373865960292868 -1 1 0
181 3 6.9975005985273295 3.154133328080959 0.8605652838468304 0 0 0
186 2 7.122380770221881 1.7861230880785215 2.236795984229154 0 0 0
23 2 10.28634483003551 1.8856757784332498 9.690631548926547 -1 0 0
147 2 11.699154887947673 0.2896878269447288 14.220353165122926 -1 1 0
28 2 9.182842090375962 3.4056195339914934 14.256008312468943 -1 0 0
22 2 12.548193693523588 3.329261468714375 10.9230306943389 -1 0 0
321 2 8.418624314984237 0.3434050396200534 11.053252474478706 0 1 0
148 2 9.113278275937768 0.5104708158941834 14.276847894088236 -1 1 0
26 3 10.619971407327665 1.7572074522939625 14.417198216395462 -1 0 0
19 3 10.444932880068315 3.3720188555555874 11.061268075903245 -1 0 0
201 2 8.416260314092572 3.389211500771414 11.097078792246407 0 0 0
27 2 11.704160430913138 3.3541070226556218 14.364787981728037 -1 0 0
24 2 10.39442910400942 1.8545010411071394 12.238277150570795 -1 0 0
209 2 7.022931851088438 1.894869854943645 13.05480199576312 0 0 0
142 2 12.488894935321575 0.3194352436795006 10.945460487672129 -1 1 0
205 3 7.301569506406167 3.5132447319679145 14.352041960448592 0 0 0
325 3 7.33893793809979 0.5311464832397862 14.387204204338783 0 1 0
200 3 7.132299412451523 1.9813913687088034 11.067943675038048 0 0 0
210 2 7.0638791255930515 1.8855063236924048 15.661793171164767 0 0 0
198 2 7.224403559082692 1.7473269630745392 9.003208574179213 0 0 0
139 3 10.385901366701527 0.3612760593190982 11.126898362252678 -1 1 0
135 2 11.747674500368454 0.27377984228298435 7.925627236604307 -1 1 0
14 3 10.312137118065513 1.8383250906307906 7.860726156430257 -1 0 0
15 2 11.720403322741966 3.229036018931877 7.872363218777302 -1 0 0
213 2 8.3644088533913 3.34089818597789 17.556559474537735 0 0 0
47 2 10.528698391555288 1.8218497451118763 22.79071439814423 -1 0 0
36 2 10.279192620748288 1.8359985144440185 18.91989359375677 -1 0 0
31 3 10.191858206908648 3.4307365435349877 17.637431243625386 -1 0 0
40 2 9.233478702209151 3.352150803617864 20.861184825531243 -1 0 0
160 2 9.14680491229538 0.19716782916232747 20.971165267884572 -1 1 0
35 2 10.37434214970493 1.7726265681773357 16.268227921862714 -1 0 0
154 2 12.383922707631193 0.441539510497412 17.63920019390857 -1 1 0
159 2 11.841831864375797 0.270996289281252 20.734034210438978 -1 1 0
39 2 11.828783497841536 3.3199537831812904 20.74292121533603 -1 0 0
34 2 12.410893461396503 3.336175379298296 17.601822539932975 -1 0 0
38 3 10.647348407600312 1.9087901204423572 20.948030987081935 -1 0 0
151 3 10.433724892274451 0.40973706834331647 17.68158237737003 -1 1 0
333 2 8.293309775746922 0.38856697268906154 17.633093605258342 0 1 0
221 2 7.2579085567765045 1.8373984932024678 19.667891567250464 0 0 0
217 3 7.03449881934198 3.363624543112417 20.934779042180732 0 0 0
337 3 7.355814233470461 0.443433063090813 20.921749305405946 0 1 0
212 3 6.816811597702782 1.751593761223664 17.666221173873552 0 0 0
222 2 7.078709559326784 1.9260139439506951 22.216044208255497 0 0 0
229 3 7.262935109452771 3.288312272186621 27.534916027897083 0 0 0
51 2 11.80111385268665 3.431299869660525 27.752191967404862 -1 0 0
225 2 8.48779934262978 3.2542008039973926 24.13271521556066 0 0 0