LAMMPS data file via write_data, version 5 Jun 2019, timestep = 1020000

546 atoms
3 atom types

0.0000000000000000e+00 1.3959816000000000e+01 xlo xhi
0.0000000000000000e+00 8.9076089999999990e+00 ylo yhi
4.4245400000000146e-01 4.3802945999999991e+01 zlo zhi

Masses

1 1
2 16
3 47.86

Atoms # atomic

96 2 5.7866816904053469e+00 3.3898850434598748e+00 4.2472201440325028e+00 0 -1 0
42 2 1.0924165337991767e+00 3.4738997479663829e+00 4.2655457460635358e+00 0 -1 0
92 3 2.7271835098788317e+00 3.4759895271452868e+00 1.0547264939588092e+00 0 -1 0
74 3 2.7059870015550280e+00 3.5215775253030501e-01 1.2664120083736683e+00 0 -1 0
75 2 6.3484995204809964e+00 1.9492642695767768e+00 1.9553907792770906e+00 0 -1 0
73 3 5.0934387057954265e+00 1.8874410461498292e+00 3.4503894438610105e+00 0 -1 0
82 2 3.4052393317111642e+00 1.9698922616032666e+00 4.7415285050422877e+00 0 -1 0
95 2 3.9558812582601655e+00 3.4227043648005968e+00 2.5733422575007210e+00 0 -1 0
21 2 1.5357841165967974e+00 1.8286985100480107e+00 1.9553162035546092e+00 0 -1 0
19 3 3.6423482226536680e-01 1.7986937325222465e+00 3.3787565993082249e+00 0 -1 0
77 2 4.0095575093318825e+00 4.3338043682763411e-01 2.5105837464752621e+00 0 -1 0
24 2 1.0928510872281187e+00 5.3411544118315002e-01 4.4584149821002619e+00 0 -1 0
78 2 5.7163032023727700e+00 4.8330275012947682e-01 4.4003981256067233e+00 0 -1 0
98 3 2.7351971566002264e+00 3.4547005378182050e+00 5.8610489172731368e+00 0 -1 0
80 3 2.6565440717290367e+00 5.0772488107892522e-01 5.7813577241122820e+00 0 -1 0
79 3 5.1145656059579654e+00 2.0250579797696395e+00 8.0851128917331962e+00 0 -1 0
88 2 3.4771547460150631e+00 1.9455605065262993e+00 9.6660241226932335e+00 0 -1 0
27 2 1.7529438873008005e+00 1.9897043160471310e+00 6.5704368566716784e+00 0 -1 0
101 2 3.9984422669001787e+00 3.3219435620223141e+00 7.1325883728952686e+00 0 -1 0
102 2 5.8278364355842953e+00 3.4494245048056094e+00 8.9591062063526312e+00 0 -1 0
81 2 6.4055726127756341e+00 1.9459518342037723e+00 6.7697691411979362e+00 0 -1 0
104 3 2.4887335494747744e+00 3.3105340990863241e+00 1.0482461239797246e+01 0 -1 0
48 2 1.0856148973355639e+00 3.3002475317833695e+00 8.8740267077988779e+00 0 -1 0
83 2 4.1066113224989156e+00 5.5033715580555664e-01 7.0263433995561346e+00 0 -1 0
30 2 1.0698591830870590e+00 4.2100480472020652e-01 9.0222728875022149e+00 0 -1 0
84 2 5.7762824316306105e+00 3.8999839840508421e-01 8.9900866724713833e+00 0 -1 0
86 3 2.6587750540808579e+00 3.4510665025891801e-01 1.0313206540614759e+01 0 -1 0
25 3 9.3996472375112231e-02 1.9164654268639090e+00 8.0912140050342511e+00 0 -1 0
33 2 1.4317117171130047e+00 1.8387993519544332e+00 1.1266993207257164e+01 0 -1 0
107 2 3.7283782378308814e+00 3.3364154988164696e+00 1.2187687175074450e+01 0 -1 0
108 2 5.5206128816927729e+00 3.3571467641923252e+00 1.3918535656932816e+01 0 -1 0
494 1 3.7671741749462235e+00 4.1955885011688299e+00 1.5008968150050196e+01 -5 3 0
90 2 5.4000120306468480e+00 3.6386339456905703e-01 1.3861103595684149e+01 0 -1 0
89 2 3.8113518301795861e+00 3.7749756315733557e-01 1.1869935452123826e+01 0 -1 0
31 3 2.6712012313467709e-01 1.8896630001760695e+00 1.2744096174517884e+01 0 -1 0
87 2 6.0081383504575543e+00 1.9208977268365086e+00 1.1412596808891371e+01 0 -1 0
85 3 4.8029933598161678e+00 1.8857111985731294e+00 1.2764141211241053e+01 0 -1 0
36 2 8.7106964701101575e-01 4.0576979572110833e-01 1.3738095537137250e+01 0 -1 0
54 2 7.5465458702555555e-01 3.4156234119313891e+00 1.3778970178355229e+01 0 -1 0
199 1 4.1442440913110357e+00 2.2319522939220224e+00 1.6406122898078014e+01 0 7 0
201 2 4.1420635868174482e+00 3.1567908483864757e+00 1.6658787182570837e+01 0 7 0
294 2 2.6447891745703260e+00 5.9587159788450661e-01 1.6619779713219327e+01 -5 1 0
308 1 7.5462459537115811e-01 1.8816176583648732e+00 1.6295675432334548e+01 1 3 0
320 1 5.4366710037125303e+00 1.6523218335261802e-01 1.5660887854131065e+01 2 -1 0
373 1 2.2898669660141215e+00 2.2648481400007499e+00 1.9056324065549973e+01 1 3 0
375 2 2.8518793113449479e+00 3.0607634047834975e+00 1.9063320946202428e+01 1 3 0
257 1 4.4484539542640942e+00 2.2871179366434542e+00 1.9533797024011186e+01 3 5 0
258 2 5.2767457632300632e+00 2.1061317265174284e+00 2.0046439551471121e+01 3 3 0
422 1 6.0586060811612645e+00 1.9697725036086868e+00 1.9347012162426502e+01 -1 0 0
374 1 2.2404010010949995e+00 3.8827834021057317e+00 1.9176709102402445e+01 1 3 0
409 1 3.3079877900749759e+00 4.3476718631623523e+00 2.1706904003302739e+01 4 3 0
292 1 2.2252152553536462e+00 3.6491671468309633e-01 1.7515832616152615e+01 -5 1 0
187 1 4.5110246599102615e+00 6.2558402458762952e-01 2.0481689526066997e+01 4 0 0
200 1 3.4612438560715808e+00 3.2264422733451279e+00 1.7297174752315293e+01 0 7 0
511 1 4.4843345660930920e+00 3.6134690227194182e+00 2.1147532329158185e+01 1 9 0
215 1 6.2027150139611287e+00 1.1675924509297435e+00 1.7708010370921862e+01 0 -7 0
529 1 5.2400689577003421e+00 4.0463081674905785e+00 1.7847377419852812e+01 3 6 0
168 2 1.9324909263897463e+00 5.7895626354520235e-01 1.9054758707765632e+01 1 4 0
411 2 4.2595251237991887e+00 4.2499912183434603e+00 2.1849731177296054e+01 4 3 0
167 1 2.5703838850701093e+00 7.0972856477703572e-02 1.9635261313151197e+01 1 4 0
166 1 1.0990928042213104e+00 2.2452598202219462e-01 1.9402691651479646e+01 1 4 0
216 2 6.8638731383348723e+00 1.5906167230350161e+00 1.8249836414285880e+01 0 -7 0
255 2 1.4245254474973017e+00 3.8846238883494904e+00 2.2099865505385317e+01 -1 5 0
482 1 1.4892856520940314e+00 2.9489647253162565e+00 2.2001557694390890e+01 0 -1 0
319 1 4.4063462814636711e+00 7.0936815813344795e-02 1.6836335967334421e+01 2 -1 0
221 1 1.2487944646150249e+00 1.1747443883244737e+00 2.3473715992553121e+01 2 8 0
472 1 3.1865973462748891e+00 3.2545472176450603e+00 2.6443868887028422e+01 1 3 0
399 2 4.1730843114543479e+00 2.7027906071267310e-01 2.4986770418188684e+01 1 6 0
450 2 3.4981555997188418e+00 4.2190756684192054e+00 2.6349181711526185e+01 1 2 0
222 2 4.9179995779869379e-01 1.7687911731263710e+00 2.3724111948970108e+01 2 8 0
365 1 2.1078964869713404e+00 1.2055322128396189e+00 2.7260253391556770e+01 4 2 0
237 2 2.9891581253970272e+00 1.6148855582663633e+00 2.7109926214816749e+01 0 -1 0
253 1 1.2988874596557141e+00 4.0709713436245440e+00 2.3048717759401047e+01 -1 5 0
298 1 5.5562906330433401e+00 2.0537924499972320e+00 2.2544514094174097e+01 0 -2 0
300 2 5.8732627355183267e+00 1.3227102060154958e+00 2.3121622025573195e+01 0 -2 0
209 1 3.3164285078618922e+00 1.1512103907970392e+00 2.6239661046619041e+01 2 3 0
202 1 6.5103144402977833e+00 4.2943840272060658e+00 2.4214496679330278e+01 -1 6 0
299 1 6.4199482370063112e+00 1.7438173164478323e+00 2.3818626440360635e+01 0 -2 0
398 1 4.6883346013689522e+00 8.1832428899571652e-01 2.4325260521475730e+01 1 6 0
250 1 8.9744864938127222e-01 3.5210008274206022e+00 3.1969917270470852e+01 1 8 0
245 1 3.1509345070043313e+00 3.5168806892962450e+00 3.1668070984240419e+01 -2 2 0
313 1 1.3070633051340717e+00 3.6536403849562205e+00 2.8147438702095322e+01 4 -3 0
204 2 2.7337100033846258e+00 3.8544718118791199e-01 3.0949239371771245e+01 -2 0 0
379 1 3.0962159101867770e+00 6.9455684215031488e-01 3.1814912681982378e+01 1 0 0
518 1 4.0341167104642741e+00 7.0367608939057713e-01 2.8310122497324226e+01 -1 -6 0
246 2 2.4750601576848159e+00 3.9909170850964215e+00 3.1159552977173171e+01 -2 2 0
344 1 5.5914593369004058e+00 7.0369863412377720e-01 2.8521920605008130e+01 0 -1 0
315 2 7.5141671736377702e-01 3.9351054823314215e+00 2.8903445466540830e+01 4 -3 0
517 1 3.4815211967763418e+00 6.7910395342956786e-01 3.0377749798279677e+01 -1 -6 0
267 2 4.7393829386935469e+00 5.8949409804738018e-01 2.8964413551367944e+01 -1 -1 0
524 1 1.2301169705065340e+00 3.6575465104040918e+00 2.9693465707437376e+01 0 -3 0
297 2 6.0379030300369250e+00 6.6101580486656453e-01 3.2605859947922745e+01 3 6 0
478 1 1.0210629564515465e+00 2.9834384708108141e-01 2.9350056429415520e+01 1 0 0
405 2 8.5573391701289125e-01 3.0469740942210310e-01 2.8385529453454343e+01 2 1 0
252 2 3.2083336177944233e-02 3.7214096538529935e+00 3.2307278363893765e+01 1 8 0
291 2 3.0607733426426847e-01 1.4583642364839127e+00 3.5958640414054166e+01 2 4 0
296 1 6.7446262948165234e+00 8.8012896139115881e-01 3.3197329903249774e+01 3 6 0
385 1 4.6938920104813758e-01 1.5541090902886991e+00 3.6958248073254488e+01 0 14 0
333 2 4.2791985747971699e+00 2.8170026342408274e+00 3.3137268815907049e+01 5 -1 0
356 1 6.3719061265292938e+00 2.5090301148048577e+00 3.7598501274034824e+01 -1 12 0
388 1 3.1572178239088138e+00 2.6582914218399729e+00 3.4486147812938384e+01 0 -1 0
290 1 8.7849897103126962e-01 2.0427976324810602e+00 3.5544048632065220e+01 2 4 0
331 1 4.8464390380422282e+00 3.5834072990754251e+00 3.3342087357091167e+01 5 -1 0
390 2 2.8406670354274670e+00 2.5463431942737889e+00 3.5410412086663108e+01 0 -1 0
341 1 4.0853449794317545e+00 2.9211545608100704e+00 3.7955863668666112e+01 0 0 0
539 1 2.5777147859844329e+00 3.5208818430118773e+00 3.5768501501167492e+01 1 3 0
347 1 3.2349327064849871e+00 7.3825611735566921e-01 3.5359869115516275e+01 -2 -1 0
334 1 4.4813767463626544e+00 3.0068200880259450e+00 3.6482012785196844e+01 0 3 0
342 2 4.9136337445533496e+00 3.0403250565595217e+00 3.7358541187232852e+01 0 0 0
176 1 1.3179011746188494e+00 4.4035792258564177e+00 3.7342632356423145e+01 2 8 0
332 1 4.9088773661851892e+00 2.0400527883730346e+00 3.3039025156072945e+01 5 -1 0
226 1 4.7734850370101878e+00 1.1268996096975439e+00 4.3177027849199540e+01 -1 -3 0
212 1 1.6657312521300005e+00 3.8486284574489269e+00 4.2097133330619783e+01 0 4 0
263 1 6.0163261370384200e+00 3.9519071982521035e+00 4.1789897372151025e+01 3 1 0
264 2 5.7597422588233087e+00 3.4527683925238932e+00 4.2587478904610151e+01 3 1 0
403 1 6.1033530620965559e-01 1.3591058913964169e-01 3.8922197061239153e+01 -2 7 0
213 2 1.2368921890727331e+00 3.4757448754999070e+00 4.2879771041107460e+01 1 2 0
311 1 4.2405328090079202e+00 1.1864952194394043e+00 3.9522828638804427e+01 -1 7 0
318 2 5.5971097661662608e+00 7.3310027188330107e-01 4.2669709136397891e+01 1 4 0
541 1 5.9300680413042546e+00 1.4682908712633560e+00 4.2101241122561575e+01 1 8 0
447 2 1.2854825536666772e+00 6.2129735531218477e-01 4.2801997277432655e+01 -1 3 0
288 2 2.6571263589202396e+00 4.0584524624757661e+00 4.0744168809552932e+01 1 2 0
419 1 8.9924653332775828e-01 3.0912065140981064e+00 3.8933479780173862e+01 4 9 0
489 2 7.0096040448962726e-01 4.0374677676418358e+00 3.8837350056876602e+01 6 5 0
76 2 3.3362191229490978e+00 1.9041481845794803e+00 4.3636526879869663e+01 0 -1 -1
310 1 3.4306106377377703e+00 2.3652425877862435e+00 4.0117719125531586e+01 -1 7 0
262 1 4.8987621851487946e+00 3.7971787838951774e+00 4.2718021189767732e+01 3 1 0
448 1 6.6863583244235247e+00 8.8026408629574071e-01 3.8743072669862627e+01 3 4 0
211 1 1.5251575999423803e+00 1.5176344818485370e+00 4.2531460189546827e+01 1 1 0
195 2 6.0906377306681980e+00 2.4582382145089587e-01 3.9140807573199361e+01 5 4 0
439 1 3.9891234402521147e-01 3.8503810007116477e+00 4.3215747539531876e+01 -1 -4 0
312 2 3.5335457259788887e+00 1.7646303716986664e+00 3.9360586519938302e+01 -1 7 0
473 1 1.7869344289313085e+00 1.0707333878524370e+00 3.9146883578423903e+01 -2 6 0
480 2 8.6544846415353671e-01 1.1453472133421503e+00 3.8805298174097622e+01 -3 4 0
505 1 3.7332817211722752e-01 7.2358881820480847e-01 4.3050630658936505e+01 -1 4 0
286 1 2.0036676034584491e+00 4.0199155614295448e+00 4.0012854195878973e+01 1 2 0
3 2 1.6242074204712384e+00 7.7206689170806264e+00 2.1906071341677418e+00 0 -2 0
57 2 6.1404077026599895e+00 7.9931810759132222e+00 1.9343655124501380e+00 0 -2 0
55 3 5.0270207552212964e+00 7.7946255182892781e+00 3.4455500802903396e+00 0 -2 0
59 2 3.9479545217042151e+00 6.4119962633290637e+00 2.5004567191955891e+00 0 -2 0
64 2 3.4400925346664111e+00 7.8290043100897178e+00 4.7016265862066948e+00 0 -2 0
6 2 1.0592304629344538e+00 6.3740531782612528e+00 4.3617393551419310e+00 0 -2 0
60 2 5.8863021661706956e+00 6.3079641124346990e+00 4.1463489258041779e+00 0 -2 0
56 3 2.6102023258914322e+00 6.3432131122889448e+00 1.1333119199942252e+00 0 -2 0
100 2 3.4391900574618210e+00 4.9910134572457947e+00 4.7014740863745370e+00 0 -1 0
91 3 4.8280459523607480e+00 4.9215929492071826e+00 3.2382089283343469e+00 0 -1 0
93 2 6.0716396055664816e+00 4.8361932330474193e+00 1.7788230447195683e+00 0 -1 0
39 2 1.4638497253163025e+00 4.8927098522224064e+00 1.8211819691779998e+00 0 -1 0
37 3 3.0300266018431676e-01 4.8043515703778938e+00 3.4601374044093167e+00 0 -1 0
1 3 1.8075170683691844e-01 7.8328549807033507e+00 3.4225654168564548e+00 0 -2 0
62 3 2.5672705126384696e+00 6.4347691983647115e+00 5.5153312204094780e+00 0 -2 0
70 2 3.5640940810208948e+00 7.8446155453547268e+00 9.6021340441147949e+00 0 -2 0
9 2 1.7211903877398200e+00 7.8884162084169906e+00 6.7141076328282754e+00 0 -2 0
68 3 2.5295413449740498e+00 6.2011710123840160e+00 1.0426815840677207e+01 0 -2 0
65 2 3.9106147724181608e+00 6.3868004114102934e+00 7.0870350941093063e+00 0 -2 0
12 2 1.1838896414373328e+00 6.4844898717899477e+00 8.9392590481944314e+00 0 -2 0
106 2 3.3535429956416278e+00 4.8195219122988942e+00 9.3850384934998505e+00 0 -1 0
66 2 5.6159912364389273e+00 6.3731771441761680e+00 9.0257118633661975e+00 0 -2 0
61 3 4.7992816794418731e+00 7.9224632733693685e+00 8.0529467115119466e+00 0 -2 0
63 2 6.2259922748956349e+00 7.7570799321979473e+00 6.6012515932676816e+00 0 -2 0
99 2 6.2228269124608389e+00 4.9058594123415746e+00 6.5720628332940318e+00 0 -1 0
45 2 1.6800898869061489e+00 4.8944766485227893e+00 6.6692942142984180e+00 0 -1 0
97 3 4.7949923737316658e+00 5.0385923805610915e+00 8.0261555070921169e+00 0 -1 0
7 3 1.7149839682996121e-01 7.9408784171900120e+00 8.1754243334075998e+00 0 -2 0
43 3 3.6644800066540861e-01 4.7419623568636631e+00 7.8853565392473781e+00 0 -1 0
15 2 1.5967276745202161e+00 7.8580364544100174e+00 1.1249689495020275e+01 0 -2 0
249 2 2.9581278838453668e+00 7.9203387668747123e+00 1.4110588879219863e+01 0 -2 0
103 3 4.9862336091954251e+00 4.7808952827094036e+00 1.2947726947897152e+01 0 -1 0
105 2 6.2862595403151946e+00 4.9561176294635043e+00 1.1505742571362095e+01 0 -1 0
67 3 4.7975915826364401e+00 7.8295060794862037e+00 1.2753643767529024e+01 0 -2 0
18 2 7.3671793357778603e-01 6.4867325421661954e+00 1.3736761324927382e+01 0 -2 0
504 2 6.4564404997540130e+00 6.4093697089575850e+00 1.6259771797050004e+01 1 -3 0
72 2 5.5287012826895445e+00 6.4458699075206987e+00 1.3818694426392018e+01 0 -2 0
247 1 2.4023619202968747e+00 7.1056636911433007e+00 1.3947661217720873e+01 0 -2 0
71 2 3.8348519045146023e+00 6.3764635534232603e+00 1.1801641587665427e+01 0 -2 0
248 1 2.3116473190122893e+00 8.6597699841032121e+00 1.3928852361937979e+01 0 -2 0
495 2 3.3724318206273733e+00 4.9165664988521698e+00 1.4475958899595849e+01 -5 3 0
13 3 3.5840575664762597e-01 7.9048688915989773e+00 1.2559332828923962e+01 0 -2 0
337 1 4.7437945303444728e-01 6.4545839011055337e+00 1.6070421853444579e+01 2 4 0
241 1 5.9975212763054184e+00 6.2829951786623441e+00 1.5312416595872541e+01 4 -3 0
51 2 1.6322510880416317e+00 4.8396406545528166e+00 1.1347998997521035e+01 0 -1 0
321 2 5.3998959974940650e+00 8.8889000138831911e+00 1.6655799585057991e+01 2 -2 0
293 1 2.4598838384443229e+00 8.7750201589621870e+00 1.5985054792569496e+01 -5 0 0
493 1 2.5743284576751901e+00 4.5250139860834002e+00 1.3990826992951542e+01 -5 3 0
254 1 6.1692317397740979e+00 7.2782844832845495e+00 1.6482240701680812e+01 1 0 0
69 2 6.2349718583006499e+00 7.8749400324926437e+00 1.1428167286639800e+01 0 -2 0
175 1 8.2444766627688892e-01 5.9452985795005544e+00 2.0013671586161255e+01 1 4 0
370 1 4.6261042121175366e+00 5.6338127422408713e+00 2.0901379601669571e+01 2 5 0
516 2 2.0647031101983870e+00 5.8602631691207883e+00 1.9009177257119788e+01 3 -2 0
530 1 6.0198569224883212e+00 5.4746767974199502e+00 1.7427187407919259e+01 3 6 0
420 2 3.8763051205462880e+00 8.7936936218843051e+00 2.0671347655184160e+01 6 9 0
372 2 4.4248192430305915e+00 6.2514859083998751e+00 2.0040961580855260e+01 2 5 0
514 1 1.9532137530181364e+00 6.1363600819421347e+00 1.8067284714792770e+01 3 -2 0
515 1 2.9007257087973173e+00 6.2016207190249153e+00 1.9376855568974840e+01 3 -2 0
371 1 4.9652741497359667e+00 5.7500285310709005e+00 1.9332193426894065e+01 2 5 0
169 1 4.1617311869635802e+00 7.9299510964060591e+00 2.0275347465811308e+01 2 2 0
177 2 1.0577491598512662e-01 6.1079957332360326e+00 2.0718526750954720e+01 1 4 0
531 2 5.6949378935492367e+00 4.8880999035621029e+00 1.8296683819360119e+01 3 6 0
441 2 4.5787855268496741e-01 6.3729848995221436e+00 1.7035027523701572e+01 1 -1 0
284 1 6.9489875453113141e+00 4.5333227363875599e+00 1.9325568645055462e+01 3 -3 0
190 1 3.1409947700857854e+00 8.8991534996782047e+00 2.2097329198347989e+01 1 -2 0
534 2 1.1961199291471309e+00 5.3379431495020304e+00 2.5284283364224038e+01 -5 2 0
192 2 2.4861406536454189e+00 8.8975829173103058e+00 2.2873656501218850e+01 1 -2 0
397 1 4.8156423793122674e+00 8.3870398024204320e+00 2.5359614499392652e+01 1 5 0
532 1 8.9771883400918240e-01 5.9841176106931115e+00 2.4554840057852996e+01 -5 2 0
362 1 4.7366784684458629e+00 4.7727900310636455e+00 2.3330436370211071e+01 -5 -5 0
277 1 6.5194793816721308e+00 8.3012086941029946e+00 2.2747004474460869e+01 1 5 0
446 1 4.0531818967934008e-01 6.3370324197028598e+00 2.6675904223275413e+01 3 13 0
457 1 6.5405006006374111e-01 6.4344837569760580e+00 2.2282125145215073e+01 2 4 0
464 1 1.3590403216301907e+00 7.6461184779029709e+00 2.3045353261500054e+01 -2 1 0
488 1 6.6640254631649549e+00 7.2785273451437806e+00 2.5771167388302878e+01 8 4 0
350 1 5.6012583402151011e+00 6.4263493128552263e+00 2.4934561600145891e+01 5 4 0
363 2 5.0779221033098549e+00 4.8986444281711270e+00 2.4255592610763369e+01 -5 -5 0
465 2 6.9623188055545560e-01 6.9147256656297120e+00 2.3143452149993024e+01 -2 1 0
449 1 2.6541505715088642e+00 4.6073083425395884e+00 2.5980188459229094e+01 1 2 0
339 2 5.6875136803971609e+00 7.0890344782477959e+00 2.5707223840878314e+01 5 5 0
361 1 4.4219034341327452e+00 4.5560878664898929e+00 2.4974131027278304e+01 -5 -5 0
533 1 4.5934192602879642e-01 4.6114904871700091e+00 2.5309911711643252e+01 -5 2 0
191 1 3.0526537098789817e+00 8.6983748338640687e+00 2.3736691270456291e+01 1 -2 0
345 2 6.2148197797134737e+00 6.5662905844459658e+00 2.9802789922429927e+01 1 -2 0
328 1 2.8402237790362537e+00 7.4879101092378946e+00 3.1140096637193853e+01 4 0 0
404 1 9.7158596018062948e-01 8.2430564254266994e+00 2.8094237457312687e+01 2 0 0
383 1 6.8677435650166236e+00 6.9371161487494701e+00 2.9251157410638054e+01 5 6 0
421 1 2.4010449280638664e+00 6.7728820270651751e+00 3.2449155153790471e+01 -1 1 0
498 2 4.1747590434354933e+00 5.0552408911371867e+00 2.8706312712326117e+01 4 9 0
227 1 5.4969497201783586e+00 6.1339777167578537e+00 2.9315400333515509e+01 1 -4 0
380 1 5.7781349947167762e+00 7.0264855849738641e+00 3.1763778170007274e+01 -3 3 0
502 1 4.3927256233012741e+00 6.9054284302548155e+00 3.2372567415910154e+01 -4 1 0
381 2 5.3118011969869423e+00 7.1772482529899753e+00 3.2650522369218947e+01 -3 3 0
416 1 3.0531769091852790e-01 5.7791025791579944e+00 2.8042434476375490e+01 3 14 0
244 1 2.5940597856393297e+00 4.9639094140705620e+00 3.1347729131971967e+01 -2 2 0
210 2 2.9617695195619955e+00 6.6427664665522874e+00 3.1592260345239740e+01 0 1 0
497 1 3.9561656771937970e+00 4.8386787635036344e+00 2.7682035972162936e+01 4 9 0
507 2 2.4294760039000579e-01 6.6455998364973272e+00 2.7576228260272060e+01 3 14 0
295 1 5.6474600515493405e+00 8.7269215759224377e+00 3.2631946936491659e+01 3 5 0
496 1 3.4436754233921212e+00 4.6640309880314827e+00 2.9168641521750885e+01 4 9 0
181 1 6.4574937307755169e+00 5.2764885786993858e+00 3.5681998275487850e+01 -1 8 0
346 1 4.0694397409001883e+00 8.5765880871485365e+00 3.4552610788666847e+01 -2 -2 0
434 1 2.9402841653055001e+00 7.6700676548653579e+00 3.6908716437014640e+01 2 5 0
519 2 1.8475589259912646e+00 4.6312230018128115e+00 3.6472641986578047e+01 1 -1 0
487 1 5.9977009558373719e+00 6.0613384451503336e+00 3.7141967908439128e+01 1 11 0
384 2 1.8511510296216860e+00 6.7091220050288749e+00 3.3896846082070184e+01 5 6 0
189 2 2.8309100382296739e+00 7.0021467913185775e+00 3.7574015301403556e+01 2 3 0
203 1 9.7138410912761974e-01 6.8442914438574229e+00 3.4174824760308347e+01 -2 0 0
314 1 1.1833300775694096e+00 4.7991200453466289e+00 3.5766835252452402e+01 5 1 0
188 1 2.4245678653146601e+00 6.2112413065279011e+00 3.7184614865394458e+01 2 3 0
382 1 2.2840464937865810e+00 7.3312582797867085e+00 3.4519024843634085e+01 5 6 0
183 2 6.7258224553746739e+00 5.6625760283515589e+00 3.6502512892313931e+01 -1 8 0
506 1 6.0960072184543570e+00 5.2620845914007646e+00 3.3607160356099833e+01 0 2 0
348 2 3.4074150812470121e+00 8.6595026603059289e+00 3.5241561065830744e+01 -2 -2 0
196 1 4.3623527106949140e+00 6.7424881741340572e+00 3.8309858471126823e+01 -2 6 0
540 2 6.3753650132155837e+00 4.4552300991300218e+00 3.4040492709068509e+01 3 1 0
353 1 1.6419029666580651e+00 6.9003980431273737e+00 4.2241487429033576e+01 0 4 0
172 1 4.9179956067427364e+00 5.7750823397419362e+00 4.3102479177026318e+01 0 6 0
467 1 3.2225151815963384e+00 7.6735822228933301e+00 4.0621976564135629e+01 -4 3 0
354 2 1.1936610963349619e+00 6.4473554811860048e+00 4.2972511527311312e+01 0 4 0
415 1 2.9685897443093051e-01 6.8050264209398588e+00 4.3132704078446551e+01 1 6 0
58 2 3.3559866604956716e+00 7.8499165773539339e+00 4.3549223412585505e+01 0 -2 -1
174 2 5.6373908742180525e+00 6.4589659778591528e+00 4.2902293887292643e+01 0 6 0
466 1 2.2067679226840227e+00 7.0028697358580461e+00 3.9538158450777246e+01 -4 3 0
287 1 3.0371915824790081e+00 5.0080824090670477e+00 4.0840199195221615e+01 1 2 0
94 2 3.5076549277697073e+00 4.9506538571161949e+00 4.3542257598626847e+01 0 -1 -1
463 1 5.9696046664075428e+00 5.1562872015467409e+00 3.9596246127041404e+01 -1 -2 0
173 1 5.1672272959539063e+00 7.3081148051018410e+00 4.2916900005615858e+01 0 6 0
349 1 5.6279877568967258e+00 7.6137941004621474e+00 3.8682283453121549e+01 0 11 0
468 2 2.7293144545378811e+00 6.8519226615327673e+00 4.0367934402672248e+01 -4 3 0
305 1 6.7035083783008620e+00 8.6424296063453863e+00 3.9753098253632693e+01 5 4 0
186 2 1.4753993224504366e-01 7.5672203065479886e+00 3.9073271064368093e+01 4 -3 0
387 2 6.4947689661492296e+00 4.7752546677231829e+00 4.0279896606371160e+01 -1 8 0
351 2 5.3673762496743986e+00 6.6434664410470843e+00 3.8567963281854297e+01 0 11 0
386 1 6.8652421088972631e+00 5.5798169024209692e+00 4.0666745691266087e+01 -1 8 0
28 2 1.2651326672575680e+01 1.9725423309276540e+00 4.9544841780680873e+00 -1 -1 0
129 2 1.0822431734251238e+01 1.8867263159682515e+00 1.9604333268566130e+00 0 -1 0
149 2 8.6181370323705888e+00 3.4497107014984478e+00 2.4892894615523669e+00 0 -1 0
41 2 1.3104797235113640e+01 3.5459928293215248e+00 2.6866680518689701e+00 -1 -1 0
20 3 1.1936475439492021e+01 4.3045824815053696e-01 1.0608244815356813e+00 -1 -1 0
127 3 9.6477390745947211e+00 2.0788807312521360e+00 3.3172660292267016e+00 0 -1 0
136 2 8.1420100981937509e+00 1.9374694389626530e+00 4.7995378466938972e+00 0 -1 0
38 3 1.2013958401177307e+01 3.5050674088356768e+00 1.2075352527866920e+00 -1 -1 0
150 2 1.0538158323055926e+01 3.5263779608950521e+00 4.3059121920175292e+00 0 -1 0
131 2 8.5910980253054987e+00 5.2354978536464170e-01 2.4488700241408532e+00 0 -1 0
132 2 1.0426928998105026e+01 3.4707993333720116e-01 4.3092919317260217e+00 0 -1 0
23 2 1.3249380853255168e+01 4.3470852337834331e-01 2.5861465766339884e+00 -1 -1 0
146 3 7.3086734235843176e+00 3.5694426976423173e+00 1.0350671820621302e+00 0 -1 0
26 3 1.1653477577616830e+01 4.1536764367793000e-01 5.7398964045002288e+00 -1 -1 0
128 3 7.2960283504949146e+00 6.1284341776667428e-01 9.7740144485492608e-01 0 -1 0
152 3 7.2486903489556171e+00 3.3605058853475955e+00 5.5672137948173477e+00 0 -1 0
134 3 7.2542169296224115e+00 3.6320792571312216e-01 5.7540486233988783e+00 0 -1 0
44 3 1.1650897144051667e+01 3.4064020541686593e+00 5.7339584173554536e+00 -1 -1 0
135 2 1.0815816955598894e+01 1.9250934293298152e+00 6.7565367228618154e+00 0 -1 0
155 2 8.6681293026584445e+00 3.4543836156007290e+00 7.0810714167518203e+00 0 -1 0
138 2 1.0290039643909003e+01 4.8101623864553666e-01 9.0759140211687903e+00 0 -1 0
133 3 9.4106647174687286e+00 2.0514721332280730e+00 8.1777208188531993e+00 0 -1 0
142 2 7.9861672445885459e+00 1.9271314539432758e+00 9.5961726331253185e+00 0 -1 0
156 2 1.0198730814436775e+01 3.5773384844411744e+00 9.0633852809609152e+00 0 -1 0
50 3 1.1890427593397019e+01 3.3193046692724804e+00 1.0474155294840539e+01 -1 -1 0
47 2 1.3296628947031552e+01 3.3888708008343391e+00 7.1332137680952714e+00 -1 -1 0
34 2 1.2619172677653781e+01 1.9299413768644504e+00 9.4637473619511283e+00 -1 -1 0
137 2 8.6450896332354681e+00 4.9091823535492168e-01 6.9951359960239232e+00 0 -1 0
32 3 1.1763181524987422e+01 3.5204744724848630e-01 1.0507181011694893e+01 -1 -1 0
29 2 1.3271095956539005e+01 4.2210744614096207e-01 7.1489209891668182e+00 -1 -1 0
140 3 7.1281471265306608e+00 4.2390665716638282e-01 1.0602955461171506e+01 0 -1 0
158 3 7.1815741186306319e+00 3.4543588814182620e+00 1.0588998544853993e+01 0 -1 0
143 2 8.4383030258461940e+00 5.0460250507149296e-01 1.1900064959818915e+01 0 -1 0
139 3 9.5589991856216798e+00 1.9088848898311743e+00 1.2808183310055210e+01 0 -1 0
471 2 1.2524803223070400e+01 1.9157506752324023e+00 1.4399535470538485e+01 3 6 0
470 1 1.1810999002246552e+01 1.3087737198625549e+00 1.4363328649952351e+01 3 6 0
162 2 1.0177664815932367e+01 3.3802203817982841e+00 1.3757223035948559e+01 0 -1 0
161 2 8.3993733898454455e+00 3.3864138714940091e+00 1.2000513709054863e+01 0 -1 0
53 2 1.3145020364015490e+01 3.4006471437735679e+00 1.1764358602475520e+01 -1 -1 0
35 2 1.2988815149852380e+01 3.6998262757671235e-01 1.2079675722934191e+01 -1 -1 0
469 1 1.3003606639775750e+01 1.7928112961324540e+00 1.5248902892542418e+01 3 6 0
546 2 7.9949418149834210e+00 1.8486757451620421e+00 1.4563293910218359e+01 1 3 0
144 2 1.0207385542803999e+01 4.0065498621463191e-01 1.3716306125900317e+01 0 -1 0
544 1 8.1995196775914483e+00 2.5057019542835262e+00 1.5312237788591316e+01 1 3 0
503 1 1.1774215547434423e+01 4.2099214218984464e+00 1.4170985777722503e+01 2 1 0
326 1 1.0395490615746926e+01 1.9296193799572223e-01 1.5633161909637277e+01 0 -2 0
423 2 8.3047996032634437e+00 3.4136984711836935e+00 1.6544405777606581e+01 -1 -1 0
545 1 7.0728143260346910e+00 2.0065541999577561e+00 1.4402009081051856e+01 1 3 0
141 2 1.0857242362704714e+01 1.8801768192939727e+00 1.1413038431199871e+01 0 -1 0
208 1 8.5286709808953045e+00 4.3520248572591465e+00 1.6374707390612464e+01 0 0 0
418 1 7.8211681261789128e+00 1.2810497554803629e-01 1.4544688496948751e+01 1 6 0
327 2 1.0282308282708858e+01 1.9875186942345596e-01 1.6573613744895489e+01 0 -2 0
301 1 1.2742793755034544e+01 4.4517757661683743e-01 2.1034783885443396e+01 -4 6 0
266 1 9.1967520151929421e+00 3.1549735404081076e+00 1.6820751758984063e+01 -3 -5 0
476 1 9.1006892810711459e+00 2.7071781615516612e+00 2.1767127565240742e+01 -2 -3 0
325 1 1.0202112095409658e+01 1.1772148410108467e+00 1.6931251486323699e+01 0 -2 0
214 1 7.0489665677250679e+00 2.4339076530970276e+00 1.7738882281733304e+01 0 -7 0
430 1 9.4216733011553924e+00 4.3147517025593091e-01 2.1749686892624315e+01 1 0 0
485 1 1.1788994220759285e+01 3.0930000770335870e+00 2.0877662277559271e+01 -1 7 0
303 2 1.2625295369667120e+01 1.3470584316757015e+00 2.1562912269240517e+01 -4 6 0
523 1 1.1442985149384132e+01 3.1056177235382965e+00 1.7476933590368084e+01 -1 -6 0
307 1 1.3668308375898210e+01 2.8131546808654924e+00 1.7201694772077335e+01 0 3 0
486 2 1.1577658372265390e+01 3.8186314042386007e+00 2.0275023853015849e+01 -1 7 0
475 1 8.2191321673082047e+00 3.9638738859423532e+00 2.1006748094586008e+01 -2 -3 0
360 2 1.3009609787170170e+01 4.0860118684391731e+00 1.7847582052002807e+01 0 -1 0
525 2 1.0629410297808187e+01 2.6889057827738934e+00 1.7857570174563701e+01 -1 -6 0
289 1 1.0719630945700338e+01 2.9680245573719430e+00 1.8829437344409037e+01 1 -6 0
358 1 1.2676024892193402e+01 4.0277635081176433e+00 1.8772443350667029e+01 0 -1 0
302 1 1.1768271622013353e+01 1.2472137326694626e+00 2.1997671656530688e+01 -4 6 0
477 2 8.6810349648155753e+00 3.6194009018586670e+00 2.1809296997784930e+01 -2 -3 0
268 1 1.3304637139334336e+01 3.3204714037910321e-01 1.7249946883340364e+01 -3 1 0
309 2 1.3850195141207301e+01 1.9123214611229697e+00 1.6703860606719108e+01 0 3 0
431 1 9.5881312011311852e+00 8.8428340638026715e-01 2.3280833127250919e+01 1 0 0
198 2 1.3497207519358476e+01 3.3209815970343173e+00 2.6084795194629741e+01 -4 -5 0
220 1 1.3785196962844195e+01 1.4787730162799009e+00 2.3004041861667719e+01 1 8 0
438 2 9.5889135644353374e+00 2.6021930295131940e-01 2.4985857338351455e+01 3 5 0
236 1 8.2413049646329526e+00 3.2221268880477880e+00 2.5211492796676300e+01 -1 -1 0
366 2 8.8127063909016261e+00 2.7296135414272809e+00 2.5960099407453082e+01 3 1 0
499 1 1.1418889203322932e+01 3.0504418651913650e+00 2.2906136083272024e+01 -1 -1 0
217 1 9.3971025991244037e+00 3.5203255890477108e+00 2.7327116263953357e+01 0 4 0
401 1 1.2519811748030238e+01 3.4457315435188658e+00 2.5753405525200034e+01 4 1 0
481 1 7.7202155611105194e+00 3.7131744188739195e+00 2.3332652872299835e+01 2 1 0
483 2 7.3052829566668782e+00 3.7197656092583489e+00 2.4193087638483576e+01 2 1 0
501 2 1.1058795131771031e+01 2.9677102981538472e+00 2.3774954838305540e+01 -1 -1 0
364 1 9.0620686079229547e+00 1.8556449136775923e+00 2.5582626423354313e+01 3 1 0
500 1 1.1248565051304007e+01 3.9024507873029499e+00 2.4073029776043821e+01 -1 -1 0
197 1 1.3818547526783936e+01 2.5791303009695952e+00 2.5512143170167121e+01 -4 -5 0
242 1 1.3339578645821517e+01 2.3171969567901676e-01 2.4961338457369081e+01 3 0 0
424 1 7.8936644491911458e+00 1.7570082736640249e+00 2.7201193968616650e+01 -3 0 0
436 1 1.0488383352587615e+01 5.4502208622308590e-01 2.5191852783918179e+01 3 5 0
432 2 9.7419444484079225e+00 1.1795926192140918e+00 2.2342475276757419e+01 1 0 0
207 2 9.7818291789556415e+00 1.7331242172383194e+00 3.2225295377556677e+01 -4 -1 0
426 2 7.6074124834347625e+00 1.0423674773761467e+00 2.7890463122876984e+01 -3 0 0