LAMMPS data file via write_data, version 5 Jun 2019, timestep = 1020000

504 atoms
3 atom types

0.0000000000000000e+00 1.0755688111543584e+01 xlo xhi
0.0000000000000000e+00 9.7477520000000002e+00 ylo yhi
0.0000000000000000e+00 4.8622300000000003e+01 zlo zhi

Masses

1 1
2 16
3 47.86

Atoms # atomic

68 2 1.7296131171451770e+00 3.1037828406587105e+00 1.1633863505371771e-01 0 -1 0
77 2 2.9286109237986300e+00 8.2975507385851555e-01 4.1893647238610034e+00 0 -1 0
66 2 4.1550734096220472e+00 2.2825305194880618e+00 2.3377879779293775e-01 0 -1 0
464 1 2.7658740104605544e+00 2.7108172525780456e+00 2.9166758774538204e-01 0 -1 1
73 3 2.8313316806641877e+00 2.7788226551398068e+00 4.1352584616104808e+00 0 -1 0
92 2 1.4224907568309799e+00 3.2116539969380176e+00 5.4220461855587700e+00 0 -1 0
80 2 4.0793060883450414e+00 3.2805442669998315e+00 2.7837623711526800e+00 0 -1 0
88 3 4.1091048440428635e+00 3.4490505514576530e-01 5.5986663301326800e+00 0 -1 0
5 2 1.2103117911686634e-01 6.7171500153521313e-01 1.4511344499945540e+00 0 -1 0
78 2 1.5803709090202265e+00 2.2620430051422664e+00 2.8219384227849322e+00 0 -1 0
90 2 4.1950513574532762e+00 2.4066527653980381e+00 5.5527032908252432e+00 0 -1 0
76 3 1.6142927898454125e+00 3.9910271837117023e-01 2.8100160409282418e+00 0 -1 0
64 3 4.3090906066918482e+00 4.5462184088422164e-01 1.8399399391494459e-01 0 -1 0
1 3 1.1286196182896842e-01 2.6821422155525076e+00 1.3592921776857043e+00 0 -1 0
79 2 2.8699199022439803e+00 4.7933676995660006e+00 4.2892992653195670e+00 0 -1 0
7 2 1.1449148245442008e-01 4.6930942732757783e+00 1.4132516112747446e+00 0 -1 0
112 3 4.1873143551671852e+00 4.1226716380639949e-01 1.0920510356228121e+01 0 -1 0
25 3 1.2744766834351984e-01 2.8952021102852457e+00 6.8355421619610386e+00 0 -1 0
97 3 2.8849742300620380e+00 2.8873330725851645e+00 9.4520687717459762e+00 0 -1 0
101 2 2.8247857979522091e+00 8.3243564648134716e-01 9.6393964759234940e+00 0 -1 0
104 2 4.2440564483466323e+00 3.2496260421344592e+00 8.2734527678478091e+00 0 -1 0
100 3 1.4222343706700982e+00 3.3659179210193224e-01 8.3179547746172133e+00 0 -1 0
114 2 4.0822029850066279e+00 2.5421068421434532e+00 1.0966439449540543e+01 0 -1 0
102 2 1.4999217703657921e+00 2.4698753125519683e+00 8.1717791018874841e+00 0 -1 0
116 2 1.4780272023538608e+00 3.2983283105603762e+00 1.0829527520021324e+01 0 -1 0
91 2 5.3081205035694072e+00 4.8453428028693448e+00 6.7155003602673027e+00 0 -1 0
49 3 2.0420595026653951e-01 2.8120837583415450e+00 1.2103856097547379e+01 0 -1 0
29 2 4.6991383455927523e-02 7.4031261241372193e-01 6.9026205576171833e+00 0 -1 0
115 2 5.3581221667977479e+00 4.8331779920135114e+00 1.2052489356633847e+01 0 -1 0
31 2 1.3244391101515696e-01 4.7940686022201362e+00 6.8206328652135300e+00 0 -1 0
337 1 3.5112428862025262e+00 2.5466931427702075e+00 1.6845351153493723e+01 4 2 0
182 1 4.2078404612244329e+00 2.7755021135778355e+00 1.4594506124183578e+01 0 -1 0
338 1 5.0149988605955684e+00 2.7396064798389821e+00 1.6684449752026172e+01 4 2 0
502 1 3.0669082903881093e+00 2.9846975347219624e+00 1.3455851320914874e+01 0 -1 0
339 2 4.2880095022724101e+00 2.3225642816595724e+00 1.6158876665593294e+01 4 2 0
458 1 1.7101563606451893e+00 4.3338005058039499e+00 1.4592868506530770e+01 6 -4 0
181 1 9.3861407093897209e-01 2.2990071583033700e+00 1.4286811003900224e+01 0 -1 0
183 2 1.4077706898065023e+00 2.8776423582017840e+00 1.3698015893761481e+01 0 -1 0
504 2 4.0492686213934546e+00 3.0890293100290971e+00 1.3581057437645883e+01 0 -1 0
131 1 5.5329454966399697e-03 4.2649330319662171e-01 1.3937981053373985e+01 1 0 0
431 1 2.1493199182810283e+00 4.7939736193361913e-02 1.5859724515179803e+01 3 5 0
382 1 2.1159602294470159e+00 4.0512411658984755e+00 1.7487348273568678e+01 -2 6 0
384 2 2.2046933026796576e+00 3.0673525144114087e+00 1.7582361685569822e+01 -2 6 0
132 2 5.1187400513718895e-01 4.2388030426174134e-01 1.4838127717482763e+01 1 0 0
430 1 3.5590160599376155e+00 7.0907540835958216e-01 1.6088878462956252e+01 3 5 0
122 1 4.6087714109661990e-02 4.5404201846901593e+00 1.5825589530819720e+01 1 4 0
53 2 5.3241908314741765e-02 8.6197738773352062e-01 1.2222136008186354e+01 0 -1 0
319 1 1.5643098157606754e+00 1.4125277669721911e-01 1.2195727510115230e+01 0 -1 0
145 1 1.4574407794953204e-01 1.6164430281244058e+00 2.1519570710468408e+01 -1 -1 0
448 1 3.7934994646188338e+00 1.4137835268489514e+00 1.9746364359293889e+01 6 1 0
314 1 3.8584047110629633e+00 3.9241502297656488e+00 2.0719420820693905e+01 -1 6 0
450 2 3.7516062858931378e+00 5.6947898754002924e-01 1.9325698444303637e+01 6 1 0
367 1 2.6635610281294531e+00 1.1845320126680039e+00 2.1780162254494012e+01 4 0 0
411 2 4.5476387125702757e+00 2.1985033818243713e+00 2.2716047320989261e+01 11 -6 0
369 2 1.8394695286125990e+00 8.3335206996358224e-01 2.2137600807841629e+01 4 0 0
449 1 4.6359814921777867e+00 5.1952810794427740e-01 1.8930943268935582e+01 6 1 0
410 1 4.2259328576208581e+00 2.3092404963598230e+00 2.3635833508869091e+01 11 -6 0
409 1 5.3262828590851541e+00 2.8135667103728936e+00 2.2659178832589490e+01 11 -6 0
483 2 2.9329777121066871e+00 4.6094267089427241e+00 2.2960271691801978e+01 -2 -4 0
313 1 2.9962633310505882e+00 4.5458192823004628e+00 1.9591682206028235e+01 -1 6 0
437 1 5.1399696809283739e+00 1.3902299745556762e-01 2.2409334520509525e+01 5 0 0
481 1 2.9926049848786138e+00 3.8464683387318779e+00 2.3554983251529976e+01 -2 -4 0
315 2 3.6926442759344722e+00 3.8260805487835459e+00 1.9736442753132604e+01 -1 6 0
343 1 2.4235588502882077e+00 2.9101302997608829e+00 1.8521279656737612e+01 6 4 0
336 2 3.9579517851789410e+00 2.1348549024158618e+00 2.5323403179911978e+01 -4 -1 0
334 1 3.6039312029280097e+00 1.1551109698561919e+00 2.5286886165586395e+01 -4 -1 0
148 1 1.7997134797484486e+00 1.1098071049260487e+00 2.8039271300269757e+01 5 -3 0
456 2 2.4834031424085983e+00 3.4968995036568820e+00 2.7270651511782980e+01 -1 5 0
454 1 3.2301956753138743e+00 4.2196096426058087e+00 2.7482722840710181e+01 -1 5 0
335 1 3.3677395920170206e+00 2.5522273500140957e+00 2.6038583985048405e+01 -4 -1 0
155 1 1.5567434795182977e+00 3.8634924218089499e+00 2.7357306790216171e+01 -5 4 0
150 2 1.8658905913692920e+00 1.0547920685430552e-01 2.7915356707326119e+01 5 -3 0
219 2 2.3633481020336605e-01 2.1171224881409580e+00 2.4958254010317912e+01 -3 1 0
406 1 2.1849300421656442e-01 3.2678191958222675e+00 2.9436659936341997e+01 5 2 0
423 2 9.5356745545542007e-02 4.2995170305490822e+00 2.7969903746653543e+01 -5 10 0
128 1 1.7413552445744627e+00 9.9150604297618336e-02 2.9874415698219373e+01 -2 14 0
149 1 2.1894764622279479e+00 3.4071251237614675e-02 2.7001169616865983e+01 5 -3 0
218 1 1.6240630944546908e-01 1.4177819198951023e+00 2.5652734963725283e+01 -3 1 0
297 2 5.1777662523117725e+00 1.4044185133013174e+00 3.0381249785155887e+01 8 2 0
217 1 9.3749891772170479e-01 1.7022999448598253e+00 2.4366873082936099e+01 -3 1 0
239 1 1.2682834627416069e+00 4.5062675090574515e+00 3.4456061206187066e+01 2 -4 0
154 1 3.3939454609732822e+00 1.0952548297459783e+00 3.4643532189102118e+01 -6 -6 0
202 1 3.5678829176836464e+00 2.8318225152947498e+00 3.2804760888220287e+01 -1 5 0
194 1 3.5378061786803392e+00 6.0558716691897579e-02 3.5897460556644639e+01 -2 -8 0
408 2 2.3488870479688675e-01 3.1321028897931362e+00 3.0433423742241729e+01 5 2 0
129 2 2.0585958002802265e+00 5.7179897690306425e-01 3.0673008232832540e+01 -2 14 0
204 2 4.0123086755247872e+00 2.0010216358883901e+00 3.3016106616655193e+01 -1 5 0
203 1 4.4232532314087711e+00 1.7356974861673913e+00 3.2073398493801243e+01 -1 5 0
251 1 2.9335552762186068e+00 1.0235156854851537e+00 3.0473491328596729e+01 1 9 0
383 1 2.1383654294598027e+00 2.3676573553543667e+00 3.6031807745466828e+01 -1 8 0
324 2 1.3175556503486412e+00 2.9528121582590021e+00 3.5981632864167644e+01 4 8 0
207 2 3.0134712586033841e+00 4.7901590803340515e+00 3.2022119887557999e+01 6 4 0
156 2 3.0328709663626121e+00 7.6376703158074477e-01 3.5581500140205819e+01 -6 -6 0
322 1 1.6638720522658672e+00 3.8135800647507825e+00 3.6425387760977294e+01 4 8 0
407 1 8.6218585785696189e-01 2.3735900559389500e+00 3.0487409715478535e+01 5 2 0
261 2 4.4030040029527466e+00 1.0697939145590132e-01 3.9076418865173594e+01 1 4 0
259 1 5.1114214980736907e+00 2.1240327031911477e-02 3.9742767591143867e+01 1 4 0
405 2 1.9338769244577010e+00 9.3853109829966908e-01 4.0075496635538073e+01 -6 7 0
403 1 1.4392763878976225e+00 7.2965446941690359e-01 3.9202451930990797e+01 -6 7 0
139 1 4.2589536757882103e+00 3.8583931972235876e+00 4.2164255264365963e+01 -4 2 0
404 1 2.8496928458023985e+00 6.6903650622528754e-01 3.9777040783262656e+01 -6 7 0
284 1 4.5066239051936980e+00 4.0207219510225904e+00 3.7256002131772171e+01 2 -4 0
260 1 4.7856240022166592e+00 6.5531761515089215e-02 3.8248544053312933e+01 1 4 0
214 1 3.9060621366906525e+00 4.5568472517709520e+00 3.9681405931403134e+01 -3 3 0
467 1 1.2558625165460202e+00 2.5124209065709420e+00 4.0678337318284569e+01 -4 5 0
468 2 6.6621960247473866e-01 3.2771188586353937e+00 4.0847808574991340e+01 -4 5 0
285 2 3.9754432334257168e+00 3.4898290695579650e+00 3.7877508145273310e+01 2 -4 0
283 1 4.1898264184626504e+00 2.5629207436042329e+00 3.7796896686993982e+01 2 -4 0
466 1 3.7850433166556435e-01 3.2917791782295192e+00 4.1780187890678029e+01 -4 5 0
193 1 5.2523141184997320e+00 2.5623476697021763e+00 4.2035695450912932e+01 -5 3 0
477 2 3.7939419942537417e-01 1.0912485570449201e-01 3.7966035372931600e+01 0 2 0
488 1 4.1551133255838146e-01 4.1966566998757662e+00 4.6912502075846710e+01 0 -1 0
222 2 2.6575720375922676e+00 4.9348892465810518e-01 4.7373977444699655e+01 0 -1 0
135 2 3.3381060721510464e-01 4.0995621437815446e+00 4.3565471134195022e+01 10 0 0
220 1 2.7726449618720310e+00 1.3771273175112229e+00 4.6896443945483497e+01 0 -1 0
262 1 4.2592322948971857e+00 2.4433205455968348e+00 4.5950726033617535e+01 -1 2 0
503 1 3.1715600331051568e+00 3.4355825826251358e+00 4.6379231109253389e+01 -1 2 0
393 2 2.4105958124146438e+00 1.5953312004609901e+00 4.3432659081474988e+01 8 5 0
264 2 3.2984902757739216e+00 2.5106820551340645e+00 4.6048451870716860e+01 -1 2 0
392 1 2.6636496305698185e+00 1.6669982834272277e+00 4.4380319398363120e+01 8 5 0
340 1 1.7074604485011529e+00 2.1021166482401710e-01 4.7425559977166280e+01 0 0 0
134 1 1.2376543859040152e+00 4.3283062884168952e+00 4.3970711490321492e+01 10 0 0
133 1 1.9575889455634021e-01 3.3957584422905516e+00 4.4266471049901590e+01 10 0 0
323 1 3.1157571484877473e+00 2.1852761667269922e+00 4.3078065656988414e+01 13 3 0
342 2 1.1207088622797992e-01 1.8838662907517958e-01 4.7299892322438886e+01 0 0 0
241 1 1.3885956288327967e-02 1.7594152399075809e+00 4.6464050362216973e+01 9 9 0
195 2 4.6388965954444910e+00 3.0989688946992326e+00 4.2666238840805427e+01 -5 3 0
72 2 4.2034951258752109e+00 8.0500373912979910e+00 2.2367321027165316e-01 0 -2 0
96 2 4.1050040471865401e+00 8.0964882043217816e+00 5.5134318445973625e+00 0 -2 0
82 2 4.0791828182730860e+00 7.1978917225159904e+00 2.8600329499202441e+00 0 -1 0
63 3 2.7093861917441444e+00 7.6928921922638471e+00 1.4983755972497612e+00 0 -2 0
74 3 3.9440756285539722e+00 5.3536142040970720e+00 2.8372794945402919e+00 0 -1 0
69 2 2.8680216384329764e+00 5.6284149680543258e+00 1.4525397833507538e+00 0 -1 0
70 2 1.2345239041125866e+00 7.0573934577508748e+00 3.6099380451533652e-01 0 -1 0
84 2 1.4399799063072387e+00 8.0802476826156795e+00 2.8099867179344522e+00 0 -2 0
373 1 5.0203169841731441e+00 7.5229925678299345e+00 1.0655783560405824e-01 0 -1 1
94 2 1.3010150929927164e+00 7.2256479383026440e+00 5.6049423629765336e+00 0 -1 0
86 3 1.4598603512652910e+00 5.2621774673230028e+00 5.5240447073725498e+00 0 -1 0
71 2 2.8140190837359631e+00 9.6059903781607172e+00 1.4787202185809865e+00 0 -2 0
62 3 1.4449543594993703e+00 5.0958924922153521e+00 1.7474715188642140e-01 0 -1 0
15 3 9.0961847517665534e-02 7.6883004480418418e+00 4.2023844355954312e+00 0 -2 0
21 2 3.5753751516877430e-01 5.6455261302645363e+00 3.9105792340669532e+00 0 -1 0
341 1 1.6873374724328344e-01 7.6729831828454138e+00 5.3068902132449591e-01 0 -1 1
23 2 1.7543583356682704e-01 9.7095908259699986e+00 4.1273889098066752e+00 0 -2 0
110 3 1.5230281244130297e+00 5.2884406613611095e+00 1.0955612353327364e+01 0 -1 0
98 3 4.1031105172285152e+00 5.2083535557166032e+00 8.2090956748833577e+00 0 -1 0
39 3 1.4911174443841385e-01 7.6510384483120291e+00 9.6551899028172805e+00 0 -2 0
118 2 1.4378671034015136e+00 7.2914138704550746e+00 1.0968452102982663e+01 0 -1 0
93 2 2.7132451300393394e+00 5.7493903181953696e+00 6.9060680189847545e+00 0 -1 0
87 3 2.6711915314841383e+00 7.6982762803550848e+00 6.7827905293855935e+00 0 -2 0
106 2 4.0808044433649249e+00 7.2533901114339283e+00 8.0995928756657989e+00 0 -1 0
108 2 1.4289883662420699e+00 8.1453407993671014e+00 8.2509242804421721e+00 0 -2 0
120 2 4.0848613409080663e+00 8.0662235879560651e+00 1.0915281520491076e+01 0 -2 0
99 3 5.3048130071671435e+00 7.6230001662730871e+00 9.4124290079655228e+00 0 -2 0
103 2 2.7926016217183740e+00 4.9583718362801523e+00 9.4214668522504539e+00 0 -1 0
45 2 1.8944345424003675e-01 5.7919044438606768e+00 9.5420419393913569e+00 0 -1 0
47 2 1.5595718611204398e-01 9.7436662216128553e+00 9.6981570928282785e+00 0 -2 0
105 2 5.3203555603262291e+00 5.6946273072482096e+00 9.6509967850322447e+00 0 -1 0
95 2 2.8144867093025772e+00 9.6660730399140480e+00 6.8850604955832484e+00 0 -2 0
380 1 4.4639554057120678e+00 5.3032688047171037e+00 1.2129560117566683e+01 0 -1 0
111 3 2.8480297607227274e+00 7.6632369244426730e+00 1.2388502981156289e+01 0 -2 0
371 1 3.5383925117066490e+00 8.4140607315935494e+00 1.7054931464983504e+01 1 0 0
321 2 1.5006291842868380e+00 7.6447091310510862e+00 1.3760717321044142e+01 0 -2 0
457 1 1.5667571512718261e+00 5.9127313881472334e+00 1.4507472184525197e+01 6 -4 0
271 1 1.2967015986733517e+00 8.5087921698956634e+00 1.4282562380399533e+01 0 -1 0
370 1 4.3030806357457703e+00 6.9796074538427293e+00 1.7132843282069761e+01 1 0 0
356 1 3.9418719143407039e+00 6.2502518384379240e+00 1.5112049884614285e+01 7 3 0
357 2 3.9838353867643885e+00 5.7390942861471679e+00 1.5994876737019270e+01 7 3 0
432 2 3.0814342196605984e+00 9.5503143004619275e+00 1.6075247034938574e+01 3 4 0
256 1 3.9104430864534581e+00 8.3622224597976853e+00 1.4553867354320120e+01 0 -1 0
381 2 4.1426760973533270e+00 7.6793765689982223e+00 1.3902728011478189e+01 0 -1 0
355 1 3.0116799108989492e+00 5.5123080351767788e+00 1.6053871389797937e+01 7 3 0
117 2 2.8943731998208890e+00 5.7131230439164931e+00 1.2234188706669475e+01 0 -1 0
366 2 1.8070862300567871e+00 5.7285114842390685e+00 1.8157351452702091e+01 0 6 0
372 2 4.2165538385905013e+00 7.9276302443863713e+00 1.7574298989495059e+01 1 0 0
459 2 1.4008999546151395e+00 5.1506106786452710e+00 1.5147722855698770e+01 6 -4 0
119 2 2.6254760971371054e+00 9.6626926058371652e+00 1.2180617303952063e+01 0 -2 0
289 1 6.1258683260968901e-02 5.6276017344768823e+00 2.1597836508651923e+01 0 6 0
287 1 4.9239749350878856e+00 6.5024831487263972e+00 2.0330077329392005e+01 11 2 0
290 1 1.1117137056799873e+00 5.2179056685398360e+00 2.2689292723039788e+01 0 6 0
291 2 3.7430468324064209e-01 5.7934247705835586e+00 2.2532218789741222e+01 0 6 0
332 1 3.5811392067268786e+00 5.2807914562585658e+00 2.3258508371614997e+01 -3 2 0
288 2 4.4042459149344708e+00 7.3170952409558305e+00 2.0385026019293637e+01 11 2 0
424 1 2.7205299949040023e+00 7.5912176285975788e+00 2.1378758511868071e+01 -2 7 0
426 2 1.9431131927492460e+00 7.9534227825376380e+00 2.1868377743199005e+01 -2 7 0
439 1 5.0205636409586551e+00 7.2881661900367805e+00 2.3131907244533711e+01 4 2 0
425 1 1.4479456854669159e+00 7.2631956034892795e+00 2.2392443884084752e+01 -2 7 0
286 1 4.0996932177410308e+00 7.4694046698080072e+00 1.9438947008996241e+01 11 2 0
494 1 8.8182925316459715e-01 9.1018177284722412e+00 2.0075083342747075e+01 0 1 0
441 2 4.9819790095224965e+00 6.4242643765076863e+00 2.3663802648142727e+01 4 2 0
495 2 1.1437678442611163e+00 9.1212738483916596e+00 1.9119746546067756e+01 0 1 0
364 1 1.0068685027466329e+00 5.7046506739848555e+00 1.8813689964535158e+01 0 6 0
436 1 4.7550204852342945e+00 8.7664641193815811e+00 2.1426366581292278e+01 5 -1 0
493 1 2.0131807094171625e+00 9.5736783446577700e+00 1.9175611735130406e+01 0 1 0
365 1 2.1879834663665285e+00 6.6067106932532171e+00 1.8238430425384983e+01 0 6 0
438 2 5.3030197424850396e+00 8.9638259978921280e+00 2.2210038860207518e+01 5 -1 0
368 1 2.0918797268359288e+00 9.6366785202277541e+00 2.1961860373916007e+01 4 -1 0
417 2 3.0884153431732035e+00 9.1584294900800618e+00 2.5235534460980688e+01 12 4 0
440 1 5.1289020396022007e+00 6.6366909263033316e+00 2.4595770951822949e+01 4 2 0
415 1 2.4205795544015407e+00 8.7430201122068176e+00 2.4645764827740230e+01 12 4 0
299 1 4.6690476056965204e+00 6.4498305976802897e+00 2.6785870471677619e+01 -3 -12 0
358 1 4.3515075464410957e+00 6.0654028093918448e+00 2.8652478846532301e+01 4 4 0
416 1 3.7406999878512988e+00 8.4031190685589241e+00 2.5552974335069504e+01 12 4 0
281 1 2.0724149464564650e+00 6.6982449202713017e+00 2.9364536686001649e+01 1 3 0
278 1 4.5302992856468380e+00 8.2211364057985588e+00 3.0089760063688590e+01 1 7 0
360 2 4.8638925299339579e+00 5.4728804309627357e+00 2.8045626943661350e+01 4 4 0
141 2 1.2797506159138754e+00 6.9197370362101926e+00 2.5163605690923404e+01 -2 -1 0
140 1 2.0006992917818032e+00 6.7330636733413334e+00 2.5771513910373866e+01 -2 -1 0
282 2 3.0771005992326175e+00 6.5685032338942211e+00 2.9701232750747788e+01 1 3 0
300 2 4.6962780439791949e+00 7.2409216253926862e+00 2.6164791920033320e+01 -3 -12 0
421 1 2.2076348403642537e-01 5.1549100270566814e+00 2.8457233087041068e+01 -5 10 0
159 2 5.0315185314166555e-01 6.9148562018674165e+00 2.9273974585832956e+01 8 13 0
244 1 1.3525519809916529e+00 6.1981309274297214e+00 2.4407554695887637e+01 -1 3 0
157 1 8.3199670241494800e-02 7.3493105485567520e+00 2.8461326255812452e+01 8 13 0
280 1 2.8825793532496795e+00 5.8373951078318944e+00 3.0316649243285404e+01 1 3 0
452 1 1.5836114936588577e+00 7.5182294917133738e+00 3.2166261944059798e+01 9 3 0
240 2 1.3468955708010588e+00 5.3317092607359760e+00 3.3995604975788623e+01 2 -4 0
238 1 2.0263016254489146e+00 5.8389629940898384e+00 3.4491360252540645e+01 2 -4 0
189 2 3.5802533162170360e+00 6.9555368872790035e+00 3.5272029948239478e+01 -6 4 0
453 2 1.9398434363663044e+00 8.2987308929285515e+00 3.2632880694815505e+01 9 3 0
206 1 3.6490111669604395e+00 5.4574105622194331e+00 3.2389749472965725e+01 6 4 0
188 1 3.0833436345395770e+00 7.5050147529500695e+00 3.5982029558148596e+01 -6 4 0
187 1 3.5091682242544144e+00 7.4528432343431401e+00 3.4378020134632756e+01 -6 4 0
386 1 4.7821486456180944e+00 5.7939039553266722e+00 3.5898700849790472e+01 -4 15 0
497 1 8.4606213659441631e-01 8.8646932890547099e+00 3.4007225292363266e+01 1 1 0
451 1 2.0582080425833196e+00 8.9793717342637258e+00 3.1984151242684138e+01 9 3 0
246 2 5.1843236906165124e+00 9.1798252100075359e+00 3.3730581701442027e+01 3 4 0
496 1 2.9076921968116792e-01 9.3378970587663552e+00 3.5347982139404152e+01 1 1 0
486 2 5.3169247230351901e+00 6.7020844301133833e+00 3.2286543863143315e+01 -3 -9 0
485 1 5.2556791599118053e+00 7.2904297266420288e+00 3.3092200779962980e+01 -3 -9 0
245 1 5.2177644698379746e+00 9.1884853192641227e+00 3.4663581123216872e+01 3 4 0
498 2 8.4313345065604395e-02 8.7449242701383678e+00 3.4605179007003152e+01 1 1 0
205 1 2.2117716019535587e+00 4.9653304830837381e+00 3.2655656204521414e+01 6 4 0
233 1 6.6291376023560111e-01 5.1183106875762272e+00 3.8191531536507071e+01 3 2 0
153 2 2.6191412724877501e+00 6.8143279511176766e+00 4.1740259484776445e+01 -10 3 0
231 2 3.3684586501323110e-01 6.0345601168753964e+00 4.0491850156002585e+01 -8 5 0
151 1 3.3150511551341717e+00 6.3000648335955232e+00 4.1366877696013461e+01 -10 3 0
345 2 2.4150405857437516e+00 8.0519335009453510e+00 3.7417440001494967e+01 2 5 0
229 1 1.0358636998764650e+00 6.4802147557618248e+00 4.1008943537857768e+01 -8 5 0
232 1 1.1156453088868863e+00 6.3501258013874438e+00 3.7343389358895280e+01 3 2 0
185 1 3.1211951821277366e+00 8.2755826562916805e+00 3.8032931261383062e+01 -1 7 0
152 1 3.0825203952778426e+00 7.6026098335316030e+00 4.2098578783391964e+01 -10 3 0
344 1 1.7337629811193918e+00 8.7292097697606419e+00 3.7453802729976395e+01 2 5 0
234 2 5.8650437966399949e-01 5.5135291503569750e+00 3.7245752959017025e+01 3 2 0
275 1 9.8701118264211196e-01 9.6807752651325352e+00 4.1052287340848160e+01 -4 -1 0
377 1 5.1584653364784083e+00 9.2225871358733436e+00 4.2442819421057791e+01 -9 -1 0
216 2 4.3800159403265848e+00 5.1683969654316515e+00 4.0276123144037228e+01 -3 3 0
230 1 6.8828361168662400e-01 5.1788662397116632e+00 4.0134843391302503e+01 -8 5 0
276 2 3.4832606779323544e-01 9.0468432046954170e+00 4.1572518306338878e+01 -4 -1 0
215 1 5.3071458425337958e+00 5.2037893185776571e+00 3.9989985791403839e+01 -3 3 0
167 1 1.8333007603018772e+00 7.8777370448432480e+00 4.5832616526767815e+01 -7 -5 0
374 1 2.7536525449376845e+00 6.1831994067551523e+00 4.6890245250257671e+01 0 -1 0
166 1 2.9662322666179888e+00 8.4114067946738356e+00 4.6699336638036783e+01 -7 -5 0
489 2 3.2560136121908456e-01 5.0949228582383075e+00 4.7352241642387163e+01 0 -1 0
446 1 3.0206239206531165e+00 5.8409141544124399e+00 4.4818706323339967e+01 -3 0 0
168 2 2.8407769874472448e+00 7.8652635000091822e+00 4.5868832454979483e+01 -7 -5 0
213 2 3.5507541772081557e+00 8.8369379272475896e+00 4.3173485461722855e+01 3 10 0
412 1 2.8828130228560278e+00 6.0496007733131334e+00 4.3244574970272510e+01 1 5 0
211 1 3.5657102275612935e+00 8.3960503671121991e+00 4.4016322958897113e+01 3 10 0
414 2 2.9662325118745581e+00 5.3613941654605073e+00 4.3917847049279622e+01 1 5 0
465 2 2.9543725421508062e+00 5.2685924998867000e+00 4.7119548320140822e+01 0 -1 0
212 1 3.0544308473933830e+00 9.6701617824292150e+00 4.3134644497616598e+01 3 10 0
463 1 3.9826699259740859e+00 5.2227362031131142e+00 4.7234668731364614e+01 0 -1 0
32 2 6.8480030941170922e+00 3.1463681509785908e+00 5.5645042262394444e+00 -1 -1 0
30 2 9.4401365478532906e+00 2.3629818671152734e+00 5.5949945324824784e+00 -1 -1 0
6 2 9.5608913485511984e+00 2.2772659810164582e+00 1.7114161192830382e-01 -1 -1 0
17 2 8.2717438124056333e+00 7.1095688493728482e-01 4.0965925656257856e+00 -1 -1 0
8 2 6.8356845116594496e+00 3.3628225604338668e+00 2.1543118279464965e-01 -1 -1 0
18 2 6.8372189797951757e+00 2.4240489343438743e+00 2.9206821167273147e+00 -1 -1 0
4 3 9.5625692339275066e+00 3.4643881158481921e-01 1.6701717076368233e-01 -1 -1 0
16 3 6.8462904795101354e+00 2.9296312424344545e-01 2.9124208167904859e+00 -1 -1 0
20 2 9.6707509122103854e+00 3.1335268359609967e+00 2.9198065879318333e+00 -1 -1 0
13 3 8.3343818843646407e+00 2.8138632464842246e+00 4.1596621652143568e+00 -1 -1 0
28 3 9.5728484654402273e+00 3.0527195560087800e-01 5.4873209783626447e+00 -1 -1 0
19 2 8.3148876015373041e+00 4.7772229545745217e+00 4.2799279430865855e+00 -1 -1 0
224 1 7.6829989782384178e+00 2.8176425485482288e+00 2.4853425852482386e-01 -1 -1 1
65 2 5.5908676712401686e+00 7.6620616158353327e-01 1.5199795838067753e+00 0 -1 0
61 3 5.5000417438388043e+00 2.8792643171371974e+00 1.6104015138653862e+00 0 -1 0
11 2 8.1078826691512020e+00 1.5553854039678683e-02 1.4039046363703367e+00 -1 -1 0
107 2 5.6186520326068141e+00 2.4942036747019003e-02 9.6529289779297098e+00 0 -1 0
44 2 9.4645336024688245e+00 3.2341896303233328e+00 8.1474057026075126e+00 -1 -1 0
37 3 8.1615388169783589e+00 2.7587632063821590e+00 9.5796871345978278e+00 -1 -1 0
56 2 6.9438899552387792e+00 3.2092408265079571e+00 1.0952749357176268e+01 -1 -1 0
40 3 6.8558587180229029e+00 4.2506861907076199e-01 8.3457454692289943e+00 -1 -1 0
54 2 9.5394283238063586e+00 2.4357800266294998e+00 1.0886601597673621e+01 -1 -1 0
41 2 8.2983617601755117e+00 8.3566940282985069e-01 9.4481536700097006e+00 -1 -1 0
42 2 6.7760143012679031e+00 2.4238329962578318e+00 8.2861215595848261e+00 -1 -1 0
52 3 9.5399410083029839e+00 4.6273456311354938e-01 1.1004623542788318e+01 -1 -1 0
43 2 8.1297670161139699e+00 4.8705094631700918e+00 9.5801137803712351e+00 -1 -1 0
89 2 5.4875884758258868e+00 7.7719666851657521e-01 7.0024163962064661e+00 0 -1 0
85 3 5.5576422877979148e+00 2.7805563924168606e+00 6.8425750977490489e+00 0 -1 0
361 1 8.4050171611813944e+00 2.8063775154491926e+00 1.3534930683123395e+01 -1 -1 0
444 2 6.8156028449958468e+00 2.7328462269021827e+00 1.3641607892490258e+01 0 -1 0
363 2 9.4483039632041574e+00 2.8261923512950391e+00 1.3582051693484940e+01 -1 -1 0
196 1 7.1213270375961439e+00 1.2750938226779258e+00 1.4273416491028508e+01 4 4 0
198 2 7.4085387088729844e+00 3.6428361195831610e-01 1.4532653666020112e+01 4 4 0
362 1 6.6819461821718296e+00 3.4923996706663014e+00 1.4312389326280112e+01 -1 -1 0
443 1 9.6777051808130636e+00 3.2568317050072508e+00 1.4482120519126914e+01 0 -1 0
130 1 1.0639917196353187e+01 1.2746846986398577e-01 1.5566772035396720e+01 0 0 0
353 1 7.0103925560712064e+00 4.0187889934228860e+00 1.7515751869537091e+01 4 9 0
123 2 9.9324308564005452e+00 4.1569807818312343e+00 1.6187894576193749e+01 0 4 0
164 1 9.5400960222093154e+00 7.5067835734833632e-01 1.7677679142097098e+01 -1 -1 0
197 1 6.9883172190278389e+00 1.6202952093105433e-01 1.5436304972322457e+01 4 4 0
121 1 1.0061806414699246e+01 3.8439811859294744e+00 1.7141186672856183e+01 0 4 0
490 1 7.1239720077288080e+00 3.9723380615474613e-01 1.8157392562754932e+01 -4 8 0
55 2 1.0747166419791267e+01 4.7476865299607578e+00 1.2207904906253992e+01 -1 -1 0
442 1 7.2052104689205416e+00 3.8129872051885727e-01 1.2196598672070085e+01 0 -1 0
113 2 5.4852066524682703e+00 8.4384954511506249e-01 1.2279008643606700e+01 0 -1 0
109 3 5.5113026042317461e+00 2.8054406316666505e+00 1.2179087876326930e+01 0 -1 0
479 1 9.9139037041234825e+00 4.8032969121128612e+00 2.3634261866332103e+01 -1 -10 0
352 1 6.9191487882888145e+00 3.8589626547399156e+00 1.9162080884375179e+01 4 9 0
175 1 9.8005094767277114e+00 3.3576632144100205e+00 2.4309102176826894e+01 -3 -1 0
147 2 1.0039250972024918e+01 1.5892698220598138e+00 2.1036042468924396e+01 -2 -1 0
146 1 9.5747025672757484e+00 8.0173917916432380e-01 2.1320692317845772e+01 -2 -1 0
301 1 9.8817659860415024e+00 4.4060165888967679e+00 1.9845909292670353e+01 -4 4 0
491 1 7.7206429104709722e+00 1.2075639856257712e-01 2.0442206244092251e+01 -3 -3 0
354 2 7.0698317699485012e+00 3.4047591739438769e+00 1.8313231050365136e+01 4 9 0
179 1 9.7492058019122165e+00 1.9489552122592526e+00 1.9270418655266219e+01 5 -3 0
480 2 9.2446230049716203e+00 4.1549503311042297e+00 2.4047091187344737e+01 -1 -10 0
269 1 6.6080456609360985e+00 1.7759654791492643e+00 1.8655227335323104e+01 0 6 0
248 1 7.4992384315295393e+00 4.3252366494534975e+00 2.3343349084429455e+01 0 2 0
492 2 6.7123298560139348e+00 8.6653348078282844e-01 1.8873837306784036e+01 -4 8 0
138 2 9.4562932607604679e+00 2.3425039847288605e+00 1.8453702536901172e+01 -1 -5 0
137 1 8.5296933309856300e+00 2.6240924243080630e+00 1.8570865903450983e+01 -1 -5 0
249 2 6.7525776264219521e+00 4.3875243110585602e+00 2.2796804442729378e+01 0 2 0
173 1 6.3517429343408445e+00 1.3151297977881951e+00 2.7215679335910401e+01 1 0 0
388 1 8.0934370534823366e+00 3.2729921218990135e+00 2.9855309460296557e+01 6 13 0
473 1 1.0350696661415709e+01 8.3286468385608403e-01 2.8643029351161001e+01 -7 -2 0
390 2 7.7617210488897275e+00 2.3819890675145361e+00 2.9641016899478590e+01 6 13 0
177 2 8.6094947917186495e+00 4.4900005937938223e+00 2.6523476436023646e+01 -5 6 0
174 2 6.5774795331683888e+00 2.2849162924174027e+00 2.7215688674933933e+01 1 0 0
172 1 5.8274954499960465e+00 2.5902919778096050e+00 2.6620269475750248e+01 1 0 0
422 1 1.0018114162395108e+01 4.3950934056382174e+00 2.7431097426922832e+01 -6 10 0
389 1 7.4194376301992397e+00 2.5275074584069630e+00 2.8714179752888150e+01 6 13 0
472 1 8.9512995433259412e+00 1.4904721912094214e+00 2.8562816432492262e+01 -7 -2 0
395 1 8.2015232136165981e+00 3.6500345229332707e+00 2.6769902870551952e+01 -6 -4 0
474 2 9.5305357508086157e+00 8.7965595349928050e-01 2.8094935673858330e+01 -7 -2 0
176 1 8.8242931475318667e+00 4.3985022052308738e+00 2.5539893358734901e+01 -5 6 0
296 1 6.0070711583533454e+00 1.7908227313481770e+00 2.9982048047616360e+01 8 2 0
311 1 8.9744073194055058e+00 2.1043755295179923e-02 3.2077600690561226e+01 10 4 0
349 1 8.6615867661984147e+00 1.4613697025235037e+00 3.6060161745223731e+01 6 12 0
469 1 6.9107782509161098e+00 3.8435000707008382e+00 3.3758553645144836e+01 -5 -2 0
471 2 6.4015948664460911e+00 3.1777156816118186e+00 3.4278105230420941e+01 -5 -2 0
470 1 5.6093053745803454e+00 2.7976912832099039e+00 3.3773017025670327e+01 -5 -2 0
350 1 7.4031979700236121e+00 2.1182800095621328e+00 3.5223409093499541e+01 6 12 0
420 2 9.2954891827019264e+00 3.4463564621276843e+00 3.2531913327220025e+01 1 5 0
419 1 8.5693233487580418e+00 2.8502991945358396e+00 3.2380958331988694e+01 1 5 0
310 1 8.3490263158545073e+00 9.1719896446516103e-01 3.0919566439927628e+01 10 4 0
351 2 7.8241922433003195e+00 1.2465857565466874e+00 3.5479243453443630e+01 6 12 0
418 1 1.0000767029347330e+01 3.0400706493226775e+00 3.1855837735492162e+01 1 5 0
394 1 5.6679120840910020e+00 4.6305942408906065e+00 3.5386153851193185e+01 -4 8 0
312 2 9.0602333803727273e+00 2.2616373721424476e-01 3.1115499797148377e+01 10 4 0
397 1 6.4874840830035039e+00 2.3960850575240936e-01 3.6444892449854208e+01 -1 14 0
184 1 8.6904435277564147e+00 4.8714865397448870e+00 3.2358771988316484e+01 0 -4 0
461 1 8.0002989253404717e+00 1.4092799584625304e-01 3.4347431548512731e+01 3 -1 0
295 1 5.4155442350194933e+00 4.2894129244073137e-01 3.0563964626952416e+01 8 2 0
348 2 9.1221900914058711e+00 3.5725997989519298e+00 3.9163323049116819e+01 -3 9 0
227 1 9.5474183328252789e+00 2.6683737385733979e+00 3.7867216431545494e+01 12 -9 0
228 2 9.8548067685310414e+00 2.2248144244921275e+00 3.7011612645065171e+01 12 -9 0
347 1 8.3017452079850731e+00 4.0505082692529868e+00 3.9424492333128221e+01 -3 9 0
346 1 9.7972581938842431e+00 3.5302406417614307e+00 3.9843728562891975e+01 -3 9 0
475 1 1.0518063530367849e+01 8.5076039285623961e-01 3.7655866237104973e+01 -1 2 0
226 1 1.0735968023879792e+01 2.6803797015584867e+00 3.6709627070532591e+01 12 -9 0