LAMMPS data file via write_data, version 5 Jun 2019, timestep = 1020000

546 atoms
3 atom types

0.0000000000000000e+00 1.3959816000000000e+01 xlo xhi
0.0000000000000000e+00 8.9076089999999990e+00 ylo yhi
4.4245400000000146e-01 4.3802945999999991e+01 zlo zhi

Masses

1 1
2 16
3 47.86

Atoms # atomic

93 2 1.1321881570737042e+00 6.2134482017515558e-01 2.2175869186035659e+00 0 1 0
118 2 3.0318259436673056e+00 3.6988655790303273e+00 5.0194064322753915e+00 0 0 0
110 3 2.1201745129607086e+00 2.0847345006290738e+00 1.3579215343616851e+00 0 0 0
60 2 7.7326796198030512e-01 2.2150507602705587e+00 4.4481826001362839e+00 0 0 0
116 3 2.2050709418588066e+00 2.3606485791409444e+00 5.9578327179663066e+00 0 0 0
154 2 3.0856463281150073e+00 7.1137355353046761e-01 5.0780385090500229e+00 0 1 0
57 2 1.1584367625065293e+00 3.7523658462821903e+00 2.2803476054152316e+00 0 0 0
112 2 3.0204723559312248e+00 3.6459788395524764e+00 5.4271716270349912e-01 0 0 0
148 2 2.8935074081090892e+00 6.6341050960212433e-01 4.5041805862895501e-01 0 1 0
69 2 1.2372157453403467e+00 3.9071931938888209e+00 1.1572430993963088e+01 0 0 0
160 2 3.0461783829853393e+00 9.0835559460849347e-01 9.7401699603882967e+00 0 1 0
122 3 2.1434158466363873e+00 2.2432142102575670e+00 1.0822182793731024e+01 0 0 0
66 2 6.7264894830094335e-01 2.4124763410404295e+00 9.3071593859540993e+00 0 0 0
105 2 1.2498043961428515e+00 8.7228453902297631e-01 1.1640713486664337e+01 0 1 0
124 2 3.0169262831386336e+00 3.8982023000074983e+00 9.6623928211272503e+00 0 0 0
99 2 1.2154814851487490e+00 9.6880535732326478e-01 6.8550381930966680e+00 0 1 0
63 2 1.2597677950734782e+00 3.7045226952303216e+00 6.7865942984394056e+00 0 0 0
125 2 3.3957062900112587e+00 2.3751923055927686e+00 1.2148129919055782e+01 0 0 0
97 3 2.9071566705829138e-02 9.5375822944042932e-01 8.3765715170631925e+00 0 1 0
72 2 3.9103205397173341e-01 2.4187157966034545e+00 1.3962942794483997e+01 0 0 0
463 1 9.3945211430217845e-01 2.6915881542827038e+00 1.6939501488928443e+01 -3 -10 0
545 1 2.3214891415492760e+00 1.1356898829411866e+00 1.4851526651281681e+01 0 1 0
218 1 3.3157876979948941e+00 3.1224473946531845e+00 1.5302174772835931e+01 0 0 0
465 2 2.3459889791261831e-01 1.9849789331642103e+00 1.6810516713470612e+01 -3 -10 0
543 2 3.2533761793793610e+00 3.8336613095325074e+00 1.4591038719078840e+01 0 0 0
546 2 2.9442991346911525e+00 5.3048033577304243e-01 1.4516713819307348e+01 0 1 0
541 1 2.3615321358425172e+00 4.0928454959662570e+00 1.4488249054064783e+01 0 0 0
510 2 3.2303808681023991e+00 2.3538644327403380e+00 1.7074322437606867e+01 12 -3 0
314 1 9.7454751688067698e-01 2.5684853940408087e-01 1.7284572556452268e+01 -5 -3 0
239 1 1.5854966650897195e+00 2.3450430342878277e+00 2.2133464071836524e+01 -5 3 0
240 2 1.3845462176617780e+00 2.5603049264105153e+00 2.3044026803521209e+01 -5 3 0
289 1 2.2195044869367355e+00 1.6390565110448392e+00 1.9844421351960055e+01 6 -2 0
290 1 6.3575361754630155e-01 1.7453174671384051e+00 1.9703542068215437e+01 6 -2 0
258 2 3.3125863112320935e+00 4.3092060238377122e-01 2.4414066249336106e+01 2 -2 0
291 2 1.4140381616889939e+00 2.0475241760618483e+00 2.0182742616197402e+01 6 -2 0
184 1 1.3774437577205643e+00 3.8442684597219814e+00 2.0182291678233639e+01 9 -14 0
256 1 2.6053172691906341e+00 1.1125741472819863e+00 2.4300130596623848e+01 2 -2 0
238 1 4.7141333784341732e-01 2.8384087950105443e+00 2.2997967489365916e+01 -5 3 0
471 2 1.4220209155682295e+00 3.1736054521970405e+00 2.6245888205701892e+01 4 5 0
470 1 2.1280351323097131e+00 3.1514365216210218e+00 2.6946322676285419e+01 4 5 0
363 2 3.3187225458408698e-01 7.1400840833966106e-01 2.8664952369310043e+01 -7 -7 0
181 1 3.4433045527132693e+00 1.8500755342787631e+00 2.9871079673092922e+01 -4 0 0
395 1 1.3768327137101011e-01 1.9827231774239082e+00 2.5776861419372153e+01 11 16 0
183 2 2.7179267409569632e+00 1.5293152455830377e+00 3.0470149966386646e+01 -4 0 0
361 1 9.3386913442544395e-01 1.1635888450763163e+00 2.9264014132891798e+01 -7 -7 0
182 1 2.7731177592966856e+00 2.2167453534724673e+00 3.1198517597729552e+01 -4 0 0
469 1 1.7671255965492900e+00 3.6461255107621331e+00 2.5483828238527352e+01 4 5 0
388 1 2.6458656180610762e-01 1.6068241634584099e+00 3.1400409534777157e+01 1 -7 0
297 2 7.1927100456123771e-01 6.3718926863346081e-01 3.3103369870297470e+01 1 0 0
466 1 1.1134407666287016e+00 3.3263797174125354e+00 3.7309496809184708e+01 6 -10 0
468 2 7.8070933784404795e-01 4.0378694852136370e+00 3.6726518530481165e+01 6 -10 0
174 2 2.7629862157737657e+00 3.0409486328130626e+00 3.3058811422136557e+01 1 2 0
173 1 1.9367933961577073e+00 2.6219441966903747e+00 3.3282954363170241e+01 1 2 0
172 1 3.4781781446759878e+00 2.6755620483175657e+00 3.3610226629964089e+01 1 2 0
340 1 2.0436838674711355e+00 2.7215898428008329e+00 4.1768564849532616e+01 10 -11 0
529 1 5.8728203023629555e-01 5.0652988855816461e-01 4.3071922130877681e+01 -1 -2 0
342 2 2.2814736953423900e+00 3.1007980080630024e+00 4.0955614653167331e+01 10 -11 0
270 2 1.4521149860185127e+00 2.2290824415282593e+00 3.8671809140616624e+01 -1 6 0
318 2 8.3704216629136630e-01 2.2290765624647055e+00 4.3251068514740084e+01 -2 9 0
269 1 1.7045931807230470e+00 2.5398468731488326e+00 3.9562819780822977e+01 -1 6 0
268 1 7.2221498913774906e-01 1.6100620141166109e+00 3.8820230549506363e+01 -1 6 0
475 1 2.7296544771259690e+00 5.4083776050543786e-01 4.0557524254660557e+01 2 3 0
341 1 2.0918432045114796e+00 4.0559637373005586e+00 4.1030157746461583e+01 10 -11 0
476 1 2.2718065058789327e+00 1.2747638363379069e-01 4.1965405296012563e+01 2 3 0
419 1 3.1588095669710108e+00 1.5440011889966678e+00 3.7626176487364411e+01 -3 -1 0
75 2 1.2097696130578770e+00 6.7000447317656322e+00 2.3396508583178455e+00 0 0 0
136 2 3.0302031416670441e+00 6.6982306338223587e+00 5.0398304134031662e+00 0 0 0
128 3 2.3017767110185683e+00 5.1126464120062023e+00 1.3372281227263947e+00 0 0 0
78 2 6.9798775579907213e-01 5.2245737636523657e+00 4.6067479268441458e+00 0 0 0
134 3 2.2971814024786639e+00 5.2744241116119257e+00 5.8313182277041085e+00 0 0 0
96 2 7.0469093592108545e-01 8.1748000408131674e+00 4.6324759147271752e+00 0 0 0
152 3 2.1238073882665423e+00 8.2558378530419976e+00 6.1668083007932815e+00 0 0 0
146 3 2.3514474116397399e+00 8.0967969557556021e+00 1.3527138495297757e+00 0 0 0
73 3 2.9564778270294995e-02 6.7226789229465691e+00 3.7014860082801824e+00 0 0 0
140 3 2.0479259745072471e+00 5.3412077237959430e+00 1.0507646846906786e+01 0 0 0
142 2 3.0746506636202549e+00 6.7529729095166040e+00 9.6694268711958937e+00 0 0 0
87 2 1.2356765528304507e+00 6.8101109766494012e+00 1.1477721407505792e+01 0 0 0
102 2 8.6160599952278194e-01 8.3220641731852556e+00 9.0451609930942176e+00 0 0 0
84 2 6.9158792079404630e-01 5.3278917301454047e+00 9.1365864877349914e+00 0 0 0
158 3 2.3239075269283545e+00 8.2403508126336025e+00 1.0524576330024871e+01 0 0 0
81 2 1.4167393659853675e+00 6.6561707626188600e+00 6.8933334480808366e+00 0 0 0
542 1 2.2059108235103380e+00 6.2153674270979140e+00 1.4212976888827797e+01 0 0 0
200 1 1.3347748982998675e+00 5.1631517467819883e+00 1.8530450019027992e+01 -5 12 0
90 2 6.7168537662474948e-01 5.4458933799867779e+00 1.3758964130336668e+01 0 0 0
219 2 3.0277262908464460e+00 6.7027332589213948e+00 1.4383575254800848e+01 0 0 0
313 1 1.1602268991745188e+00 7.7838580382427800e+00 1.7055998101579728e+01 -5 -4 0
108 2 3.8387594470705760e-01 8.3558037373542344e+00 1.3865903758270488e+01 0 0 0
199 1 2.1028513490975183e+00 5.7342298458013730e+00 1.7362287115550064e+01 -5 12 0
315 2 1.1896612379667801e+00 8.3835339433841227e+00 1.7802393073541101e+01 -5 -4 0
217 1 3.1352471887392519e+00 6.5243320910719040e+00 1.5350334324078720e+01 0 0 0
544 1 2.4294304361844588e+00 8.6451932874699651e+00 1.4176684448323689e+01 0 0 0
201 2 1.2877099096000828e+00 5.1827000663177953e+00 1.7541156023205055e+01 -5 12 0
385 1 2.7797010164537639e+00 8.6068422596283920e+00 1.8837804887337320e+01 -1 9 0
450 2 2.5952505023957517e+00 5.4271108054775867e+00 2.3839592797510520e+01 1 -15 0
512 1 2.8889519677886359e+00 8.1232849798782620e+00 2.1453989694889177e+01 6 -8 0
168 2 3.7178719756164830e-01 7.7280918936986582e+00 2.4659245082822263e+01 1 16 0
186 2 1.5902562333305059e+00 4.7855414501383216e+00 2.0316353286093690e+01 9 -14 0
166 1 1.3083534846349345e+00 7.4694147041367795e+00 2.4517856889217281e+01 1 16 0
511 1 2.7075669263772522e+00 6.8364148063596302e+00 2.2498199133979423e+01 6 -8 0
448 1 2.2356401748272736e+00 4.6197100100120023e+00 2.3359987307016180e+01 1 -15 0
257 1 3.2156444060620655e+00 8.6347311301841074e+00 2.3776363266991169e+01 2 -3 0
513 2 3.1253233298572942e+00 7.7285885127108935e+00 2.2297814895322976e+01 6 -8 0
255 2 6.2566219095128006e-01 7.3760933673513049e+00 2.0389264832300434e+01 -9 -1 0
185 1 2.5130572677309271e+00 4.7729702501519080e+00 2.0024281039661410e+01 9 -14 0
254 1 6.7898150752585218e-01 6.4256960777433596e+00 2.0388800744588092e+01 -9 -1 0
253 1 7.2111425693733444e-01 7.7182909607532801e+00 1.9493203208780539e+01 -9 -1 0
167 1 3.0145026119235896e-01 8.6064745251259041e+00 2.5047380154222367e+01 1 16 0
387 2 3.4674897230211754e+00 8.7300191866296881e+00 1.9472069693876250e+01 -1 9 0
449 1 3.4088282615738894e+00 5.1199180005324800e+00 2.4226190843490130e+01 1 -15 0
333 2 1.8237514680220486e+00 7.2295737983553696e+00 2.8574211334001692e+01 3 -8 0
331 1 1.8228371189079520e+00 7.2395143718156021e+00 2.9587635799698106e+01 3 -8 0
306 2 2.9425817885332939e+00 7.6593154491062929e+00 3.0892938731179505e+01 0 1 0
211 1 3.0850963203660640e+00 8.1723044610186193e+00 2.7476813140353435e+01 -2 -1 0
362 1 9.3840438359490852e-01 8.8552343929034034e+00 2.8287677356202387e+01 -7 -8 0
332 1 1.0074081171612477e+00 6.7027494114357857e+00 2.8322913311319770e+01 3 -8 0
194 1 2.7422523867673965e+00 8.6484033692204054e+00 3.0885531156027970e+01 0 0 0
520 1 6.6534060930906691e-01 4.9382937277971548e+00 2.6762304385557265e+01 13 -3 0
522 2 8.1075282591902720e-02 5.5440276362821690e+00 2.7254499389710187e+01 13 -3 0
209 1 3.4239197572629130e+00 5.3183455912031468e+00 2.8193586446108217e+01 0 3 0
231 2 1.5723068550939570e+00 6.8914659188801277e+00 3.3095163171024353e+01 10 -8 0
288 2 2.7305069169323999e+00 5.2096738833702867e+00 3.5190282131337575e+01 3 1 0
229 1 9.5659646022802947e-01 6.2993986836800273e+00 3.2723749056874219e+01 10 -8 0
296 1 1.0796559297831321e+00 8.7097138691354257e+00 3.3335670465108883e+01 1 -1 0
230 1 1.9725501532547611e+00 6.3426022449628681e+00 3.3821932225851214e+01 10 -8 0
316 1 2.7379348399256860e+00 7.3417900961253260e+00 3.1798266310229451e+01 -2 10 0
286 1 3.4438585915749358e+00 5.8276191241817612e+00 3.5530987872083251e+01 3 1 0
467 1 1.5120008992601053e+00 4.5187126698324613e+00 3.6355188983868132e+01 6 -10 0
287 1 3.1067793340377023e+00 4.6903064726275643e+00 3.4492086663474744e+01 3 1 0
275 1 3.8287987350499625e-01 6.2741794934595738e+00 4.0599926722183440e+01 -1 -5 0
531 2 7.3753764749872641e-01 8.4115201482359527e+00 4.3181216090123336e+01 -1 -3 0
462 2 5.7994747112179856e-01 5.3487411172433204e+00 4.3335499804612219e+01 0 0 0
515 1 1.7202815158707283e+00 5.9201280674898538e+00 4.1987583471845852e+01 4 11 0
514 1 2.4081527693047726e+00 6.9703557739097715e+00 4.1047155873345645e+01 4 11 0
516 2 1.9669812023522564e+00 6.0411043134475451e+00 4.1124204867407670e+01 4 11 0
477 2 2.7392682768572216e+00 8.7422098740336249e+00 4.1171302144105404e+01 2 2 0
130 2 2.9474092484946430e+00 6.6485306356861491e+00 4.3775323035446128e+01 0 0 -1
109 3 4.6447126073747187e+00 3.6633826481337208e+00 3.5522947848754387e+00 0 0 0
145 3 4.4301108953323380e+00 7.2403147277881885e-01 3.6051280714027527e+00 0 1 0
111 2 5.6931791823847151e+00 3.6832560394290237e+00 2.1413250743293712e+00 0 0 0
114 2 5.3347872118625457e+00 2.1931482172203633e+00 4.5468269183365377e+00 0 0 0
147 2 5.8806720605609470e+00 7.5275180490147375e-01 2.2605399671625119e+00 0 1 0
8 3 6.7570896739952175e+00 2.2563369348939295e+00 5.9843850439397910e+00 -1 0 0
2 3 6.8774613206132384e+00 2.1828132815976096e+00 1.4054197121259333e+00 -1 0 0
113 2 3.5368611674232424e+00 2.0040995878992742e+00 2.7054665926684889e+00 0 0 0
120 2 5.4477219202430600e+00 2.3991604570921079e+00 9.1356886063474292e+00 0 0 0
151 3 4.7503405085220543e+00 9.4050326179694532e-01 8.3164373171096475e+00 0 1 0
119 2 3.6883316746927663e+00 2.2012191434474491e+00 7.3537577258120326e+00 0 0 0
123 2 5.8833209380585547e+00 3.8053879855995860e+00 1.1367064502075598e+01 0 0 0
159 2 5.7829469269347324e+00 8.6490069346746379e-01 1.1456692125917641e+01 0 1 0
153 2 5.9301512401739211e+00 8.3276912919214374e-01 6.8840378082461733e+00 0 1 0
115 3 4.2829081497210462e+00 3.8285531494543594e+00 8.2644621983029811e+00 0 0 0
117 2 5.9076307515163125e+00 3.7808365591102779e+00 6.8287304816397665e+00 0 0 0
14 3 6.8953518195852670e+00 2.2356567036803909e+00 1.0633880841999989e+01 -1 0 0
157 3 4.5547680884511115e+00 9.3742511568013664e-01 1.2779538341865791e+01 0 1 0
508 1 3.9809303092394428e+00 2.6864558361059707e+00 1.7581974784846157e+01 12 -3 0
494 1 6.4658819138414012e+00 1.6206724322267059e+00 1.6778144804399528e+01 2 -4 0
126 2 5.2456494595227401e+00 2.3440425887563259e+00 1.3795338052334033e+01 0 0 0
509 1 3.6476976225771063e+00 1.5379409729835332e+00 1.6679221464175846e+01 12 -3 0
214 1 6.4545239312680787e+00 4.6132798553801917e-02 1.8933103464154343e+01 -2 4 0
193 1 6.2478212330378575e+00 4.0489758820118720e+00 1.6738290969505790e+01 -1 -12 0
179 1 6.8969118332588408e+00 4.1191474519928386e+00 1.4313227044993603e+01 0 0 0
121 3 4.6917970417512391e+00 3.9806069002850029e+00 1.2929591334402938e+01 0 0 0
495 2 6.9579869448336158e+00 2.4772393327842868e+00 1.6949996411171679e+01 2 -4 0
532 1 6.6472329318050782e+00 1.4592918542564330e+00 1.3972378239893558e+01 -1 0 0
437 1 5.0940906777991160e+00 3.0947225849925446e+00 2.4379740564753309e+01 2 -8 0
436 1 4.6057921573844620e+00 1.5691677869099445e+00 2.4374369139461596e+01 2 -8 0
216 2 6.5180270820081043e+00 4.9167138523109494e-01 1.9784776936072547e+01 -2 4 0
438 2 5.3161353232792470e+00 2.1941318582913136e+00 2.4013189652064341e+01 2 -8 0
337 1 5.1400861500886839e+00 2.5215887282084415e+00 2.1888375955452471e+01 -2 -10 0
339 2 5.0350390623698615e+00 2.5357385480661532e+00 2.0920140648713215e+01 -2 -10 0
338 1 5.4343446807370892e+00 1.7314951725801715e+00 2.0562688236609922e+01 -2 -10 0
374 1 4.7482761985208333e+00 3.8906937094780418e+00 2.0240589811602788e+01 1 -1 0
250 1 6.7860250461919218e+00 1.8929339793637698e+00 2.2741257204390003e+01 -1 -2 0
391 1 5.4091784746957527e+00 1.7361125343931756e+00 2.8634764175540294e+01 10 5 0
208 1 4.3238092196219506e+00 4.0030921860629274e+00 2.8035915446327618e+01 0 3 0
247 1 6.6318828330157427e+00 2.5929358810419232e+00 3.1085250045742548e+01 6 -5 0
392 1 4.4390236574626361e+00 1.1228637319265953e+00 2.7781240074032592e+01 10 5 0
264 2 5.2429104850374584e+00 3.8533966286277077e+00 3.1083496011930471e+01 -1 5 0
393 2 4.4715844176904378e+00 1.8072374923908594e+00 2.8467076519539848e+01 10 5 0
406 1 4.4232557502669474e+00 2.0860171677557990e+00 3.5578916612537263e+01 -2 5 0
408 2 4.7136089618724935e+00 2.1959192247854991e+00 3.4664710359972510e+01 -2 5 0
407 1 5.6190587245006292e+00 2.5324410481045310e+00 3.4598606839063223e+01 -2 5 0
241 1 5.2943562723974198e+00 4.5785680940898310e-01 3.3971072048502386e+01 -4 8 0
420 2 4.1301547463488886e+00 1.6468638086995089e+00 3.7385304718340997e+01 -3 -1 0
418 1 4.4698771184664778e+00 6.9771703189823187e-01 3.7541912170304272e+01 -3 -1 0
262 1 4.6125904457535132e+00 3.9979396308660076e+00 3.1776001022449556e+01 -1 5 0
330 2 4.9726424844785742e+00 3.0242905606446255e+00 4.0942020211943429e+01 9 -14 0
379 1 5.4147581020795821e+00 2.3840077464362390e+00 4.2381789013725395e+01 -1 1 0
285 2 5.3417579939942730e+00 2.1329294428653749e+00 4.3356958034321607e+01 0 1 0
283 1 4.4072285341173316e+00 2.4314513841066026e+00 4.3528785624770563e+01 0 1 0
329 1 5.1200319726588930e+00 3.8046627417939143e+00 4.0408785789273971e+01 9 -14 0
328 1 4.0291295372956206e+00 3.0007173300981491e+00 4.1056691474748092e+01 9 -14 0
442 1 6.4763172256490655e+00 2.5400384919772359e+00 3.8066789684004007e+01 -10 2 0
284 1 5.5773071619160186e+00 4.3013892966461569e+00 4.2312023757628154e+01 0 1 0
38 3 6.8972554423121757e+00 8.1883895981055428e+00 1.4899888896191555e+00 -1 0 0
129 2 5.8446172587303691e+00 6.6537143174306674e+00 2.2191236441463791e+00 0 0 0
127 3 4.5346349116369495e+00 6.6439228322311434e+00 3.6274160752366567e+00 0 0 0
132 2 5.5323296565757714e+00 5.1492416789759377e+00 4.3965710590506557e+00 0 0 0
131 2 3.5156445853429417e+00 5.1998426613287414e+00 2.7645527808953649e+00 0 0 0
150 2 5.4589875870311113e+00 8.1796036252817625e+00 4.5411466108954848e+00 0 0 0
26 3 6.8269920623875100e+00 5.1797366742038360e+00 6.0817392003002926e+00 -1 0 0
44 3 6.9007746823289144e+00 8.1413817659609240e+00 5.7495752634867907e+00 -1 0 0
149 2 3.5852819180277065e+00 8.1155999471541556e+00 2.6878447612238276e+00 0 0 0
133 3 4.5599204378338349e+00 6.8713213152002881e+00 8.0813370647002127e+00 0 0 0
50 3 6.9120202104742887e+00 8.1539703633033103e+00 1.0556993259803555e+01 -1 0 0
141 2 5.8750361395653083e+00 6.6807040206900608e+00 1.1439536697536797e+01 0 0 0
138 2 5.4284677951680287e+00 5.2618158345552235e+00 9.0376807207098064e+00 0 0 0
156 2 5.3812563948617900e+00 8.2241791613355169e+00 9.0900339185417192e+00 0 0 0
137 2 3.6153978436814169e+00 5.2498449227799915e+00 7.3260896397757218e+00 0 0 0
135 2 5.9213634664002921e+00 6.6484072345939955e+00 6.8253320194677825e+00 0 0 0
155 2 3.5541121017133164e+00 8.2510076155515684e+00 7.2967431237113161e+00 0 0 0
32 3 6.7143853341890631e+00 5.2279924578239481e+00 1.0414055968852072e+01 -1 0 0
161 2 3.5834032366511197e+00 8.2574668599134817e+00 1.1881122188073705e+01 0 0 0
143 2 3.5833227251404338e+00 5.3805843153705082e+00 1.2112993252099621e+01 0 0 0
162 2 5.3223065700534855e+00 8.4590036513603106e+00 1.3766722990925475e+01 0 0 0
170 1 5.3336758510699500e+00 4.5195245716687991e+00 1.7951884447582181e+01 -5 -12 0
171 2 5.6455608996173430e+00 4.7903521577857937e+00 1.7020938241386173e+01 -5 -12 0
144 2 5.5083152103277566e+00 5.3520942311063040e+00 1.3751109215167434e+01 0 0 0
526 1 3.9710554602141714e+00 7.3779652697504963e+00 1.6929831854913576e+01 4 -7 0
527 1 4.3514654765850675e+00 5.8248420210377274e+00 1.6661089922139006e+01 4 -7 0
139 3 4.5837103442720766e+00 6.7957515979285503e+00 1.2885683408876494e+01 0 0 0
169 1 6.0716304810629982e+00 8.1611625218934627e+00 1.7061502580581454e+01 -2 -3 0
528 2 3.6228012533060570e+00 6.5085628908592223e+00 1.6791843951112515e+01 4 -7 0
195 2 5.4085514250120337e+00 8.8119921845390508e+00 1.6796324613140250e+01 2 -1 0
205 1 5.4610140186788652e+00 8.7014344586009909e+00 1.5797158134307731e+01 3 -1 0
178 1 6.9716295330968254e+00 6.2323351963752138e+00 1.4538390716229085e+01 0 0 0
373 1 4.8173676228513891e+00 5.4069944866680668e+00 1.9978053593714954e+01 1 -1 0
223 1 6.8825548508618537e+00 4.8839800041281665e+00 2.0629747347448433e+01 -1 -1 0
502 1 4.8307918585921019e+00 7.3581136037357240e+00 2.1528251022368089e+01 -7 5 0
504 2 5.6621051173053401e+00 7.1359192361632937e+00 2.1084227383986157e+01 -7 5 0
265 1 6.3017955466359021e+00 6.2843765905003579e+00 2.2572118764257606e+01 3 2 0
375 2 4.4603107251668632e+00 4.5834599535076492e+00 1.9583160515150759e+01 1 -1 0
503 1 6.0514663964151989e+00 7.9448722509412093e+00 2.0670635309760183e+01 -7 5 0
267 2 6.8101589212617100e+00 6.1206623530219648e+00 2.3365114022705036e+01 3 2 0
234 2 4.7194823732602886e+00 4.6044535914300386e+00 2.5201196636941543e+01 -1 13 0
266 1 6.9008158420138397e+00 7.0563961692566606e+00 2.3702130616905741e+01 3 2 0
233 1 5.3840915453023008e+00 5.2916064040372657e+00 2.5197207718789791e+01 -1 13 0
386 1 4.3315282994592677e+00 8.6567357397799345e+00 1.9109101018748404e+01 -1 9 0
357 2 4.7994125277388102e+00 6.4094004439545555e+00 2.9407524618082387e+01 3 -2 0
220 1 5.1699047953830313e+00 6.9424263186850599e+00 2.6894087626152039e+01 -2 4 0
210 2 3.6220635030208608e+00 4.5493949117400536e+00 2.7571721097433027e+01 0 3 0
356 1 4.1427332880733889e+00 6.9857099761685575e+00 2.9790026095911319e+01 3 -2 0
222 2 6.0465176101957461e+00 6.6235803498952359e+00 2.6662725676333814e+01 -2 4 0
221 1 6.4297726332861043e+00 7.3803979684059140e+00 2.6209033694115583e+01 -2 4 0
355 1 5.5939277911966601e+00 6.8959988360434439e+00 2.9485235280884595e+01 3 -2 0
263 1 5.0897593365003937e+00 4.5812253163560399e+00 3.0403546866375297e+01 -1 5 0
213 2 3.9441403627961358e+00 8.5064733861712831e+00 2.7029789437906473e+01 -2 -1 0
232 1 4.2652970008613442e+00 4.6894036705441211e+00 2.6033837254569804e+01 -1 13 0
345 2 6.9613455170704377e+00 7.7727605556567720e+00 3.0172804282197301e+01 6 18 0
344 1 6.9331108711597524e+00 8.7764475815140059e+00 3.0267105510506791e+01 6 18 0
212 1 3.7406961688719220e+00 8.6801103465007579e+00 2.6046351469812809e+01 -2 -1 0
242 1 5.3225905422687463e+00 8.0416479539540617e+00 3.3166567148847371e+01 -4 7 0
397 1 6.6774774167767523e+00 4.9145261807042155e+00 3.2702109401442385e+01 -3 11 0
441 2 5.0583953379440914e+00 6.3145172177784312e+00 3.5969427784599660e+01 4 -4 0
439 1 5.3375529003415698e+00 6.8569155574606437e+00 3.6751592616139803e+01 4 -4 0
243 2 5.7645620675438263e+00 8.5333267768065308e+00 3.3856744566591324e+01 -4 7 0
440 1 5.2895847831949654e+00 6.7830273915535937e+00 3.5153641847479641e+01 4 -4 0
322 1 6.6080389233373991e+00 7.1151915042951419e+00 4.0731987332964742e+01 8 1 0
380 1 4.8774191482185660e+00 7.2636458377421071e+00 4.3226646503180703e+01 -1 0 0
432 2 5.4278332307093136e+00 5.1163555852443396e+00 4.2856312835170797e+01 0 0 0
381 2 5.4256866422333632e+00 8.0407002442212594e+00 4.3140493020558729e+01 -1 0 0
324 2 5.6262584543817216e+00 7.3335715264438868e+00 4.0310250130752301e+01 8 1 0
321 2 5.1352268026667387e+00 5.1432536983455774e+00 3.8976211079308456e+01 -3 -6 0
323 1 5.0791214444346053e+00 7.8293241517481746e+00 4.0931589941446695e+01 8 1 0
431 1 4.6521694579527511e+00 4.8235141097625300e+00 4.3307787957754741e+01 0 0 0
319 1 4.9570184520774658e+00 5.8891818705106189e+00 3.9560029633183603e+01 -3 -6 0
358 1 6.6898611850709946e+00 8.2572378469459711e+00 3.7757972028410634e+01 -2 2 0
359 1 5.6342234926529322e+00 8.0133096397155317e+00 3.8831460300885539e+01 -2 2 0
320 1 4.4395453631387634e+00 5.1834059337831331e+00 3.8301040105879764e+01 -3 -6 0
360 2 5.7486605103859869e+00 8.2153608385007093e+00 3.7862510631108442e+01 -2 2 0
430 1 4.7784837998066410e+00 8.7747105950535147e+00 4.3171909760028257e+01 0 0 0
5 2 8.2300797473166281e+00 2.1443426871996181e+00 2.7580294499835101e+00 -1 0 0
6 2 1.0009472428844735e+01 2.2466667678112873e+00 4.6504474455128042e+00 -1 0 0
1 3 9.0187408341449338e+00 3.6784971387353278e+00 3.7340916481565993e+00 -1 0 0
46 2 7.6830790346543898e+00 7.3972035992272023e-01 5.0372998624286236e+00 -1 1 0
37 3 9.3308753988246700e+00 8.1258707678800057e-01 3.5541927272330733e+00 -1 1 0
10 2 7.5409825884217865e+00 3.7089473255223719e+00 4.9356985131224667e+00 -1 0 0
40 2 7.7076080786161016e+00 6.9404511118078671e-01 6.0808949880326935e-01 -1 1 0
4 2 7.5847410091961107e+00 3.6379560774921491e+00 4.6508551305586820e-01 -1 0 0
505 1 9.1379679737017074e+00 1.7673143989341260e+00 5.2052002809907805e-01 -1 1 1
12 2 1.0130941222415251e+01 2.2355211900920096e+00 9.1108423318327070e+00 -1 0 0
11 2 8.3213805073092928e+00 2.3733424184152292e+00 7.2104951830270529e+00 -1 0 0
52 2 7.6849362467274869e+00 7.8962585694551357e-01 9.6457962572986773e+00 -1 1 0
43 3 9.2085782484889016e+00 8.2361427954284649e-01 8.2522679642235186e+00 -1 1 0
17 2 8.0804822972909829e+00 2.3198089339458390e+00 1.2166249079344134e+01 -1 0 0
16 2 7.7109658666820824e+00 3.7173707361601593e+00 9.6608849331499229e+00 -1 0 0
7 3 9.2457359645620674e+00 3.8028748490183677e+00 8.2343790233845855e+00 -1 0 0
51 2 1.0440764738811810e+01 9.1791269333782211e-01 1.1263766053573079e+01 -1 1 0
49 3 9.1458109819789684e+00 9.2366066481099030e-01 1.2754263304506201e+01 -1 1 0
493 1 7.4890442772744032e+00 2.4884371660137505e+00 1.7749666374689628e+01 2 -4 0
18 2 1.0120994932139023e+01 2.2710525421217431e+00 1.3548556532278312e+01 -1 0 0
299 1 7.6502602574204346e+00 3.0799071584286617e+00 1.5144137326295983e+01 -1 0 0
300 2 7.7773137264302585e+00 3.8429849730367924e+00 1.4608733581000843e+01 -1 0 0
534 2 7.4148994198553506e+00 8.6916792450175739e-01 1.4257825587787389e+01 -1 0 0
259 1 9.6896671037267339e+00 6.4644117827386871e-01 1.6628908578336777e+01 8 3 0
423 2 8.7901652084643800e+00 2.9493165175353209e+00 1.8837610900434324e+01 5 -3 0
13 3 9.2527051171592838e+00 3.8581350274602308e+00 1.2854590744625085e+01 -1 0 0
369 2 1.0370272703987107e+01 2.4964938782258423e+00 1.6504480677452250e+01 -3 -12 0
368 1 1.0154557247787706e+01 3.1459230929359765e+00 1.7189802008409725e+01 -3 -12 0
298 1 7.1138261682242714e+00 1.9313330264406892e-02 1.4080765499488573e+01 -1 0 0
251 1 8.1502080661473322e+00 2.5746030344341873e+00 2.3172825656085724e+01 -1 -2 0
215 1 7.4087714383658998e+00 4.2871964263608792e-01 2.0129933831304946e+01 -2 4 0
422 1 8.4699065340727628e+00 3.6809898411474742e+00 1.9412137732069926e+01 5 -3 0
348 2 7.8946055389326943e+00 3.4710911127805315e+00 2.5207688016331115e+01 -6 -3 0
525 2 9.0314155237484250e+00 5.9917796900337106e-01 2.0795482228810901e+01 5 -2 0
252 2 7.7609715367684613e+00 1.8852521954096846e+00 2.2577618579996837e+01 -1 -2 0
523 1 8.8978559546455642e+00 1.0137409413765355e+00 2.1646723095131758e+01 5 -2 0
421 1 9.0404997585557592e+00 2.2757237567560122e+00 1.9557868753541065e+01 5 -3 0
485 1 1.0043127113497395e+01 9.9894275581560565e-01 2.4593840803649076e+01 -8 12 0
451 1 1.0094502691153027e+01 3.4908795793215006e+00 2.4991880105536509e+01 -4 12 0
427 1 7.1447218907927432e+00 2.5319588902787721e-01 2.4128996837245065e+01 -5 -1 0
484 1 9.7697362298502153e+00 5.7299168200092454e-01 2.6015548117391997e+01 -8 12 0
204 2 9.6574487365227242e+00 2.1283658157456924e+00 3.0394424664039992e+01 9 7 0
248 1 7.9282153715448791e+00 1.9026634253352879e+00 3.0731302047652402e+01 6 -5 0
202 1 9.6883784580042764e+00 3.1141266748872067e+00 3.0286367878605695e+01 9 7 0
249 2 7.0483460707423884e+00 1.7401116550680256e+00 3.1134254565096292e+01 6 -5 0
346 1 7.6013019457192419e+00 4.2568262983209859e+00 2.5726069048312976e+01 -6 -3 0
203 1 1.0254979321946102e+01 1.8442782128138062e+00 2.9712014103195585e+01 9 7 0
486 2 9.4974338759591443e+00 1.2543486579420375e+00 2.5377792966654958e+01 -8 12 0
354 2 1.0314500111040610e+01 4.0503192672964641e+00 2.7479913357329451e+01 -1 0 0
347 1 7.8614293186848423e+00 2.7559883516540413e+00 2.5826076112242365e+01 -6 -3 0
292 1 9.1372925072138500e+00 1.0068951327767381e+00 3.6791109276671399e+01 0 -6 0
302 1 7.7935282157175392e+00 3.2745610662520139e+00 3.3638975358781970e+01 -14 11 0
303 2 7.3846391058052170e+00 2.3659098558318430e+00 3.3790140025768757e+01 -14 11 0
301 1 7.2896673936383003e+00 1.8961999532099536e+00 3.2889617703677942e+01 -14 11 0
409 1 9.7676236680293957e+00 4.0309471109304820e+00 3.4932224524293567e+01 7 7 0
454 1 8.4402040940667931e+00 1.4136835481689918e+00 3.4572594900170124e+01 5 6 0
456 2 9.1365549630334097e+00 7.7311409126935227e-01 3.4900410985719802e+01 5 6 0
411 2 1.0093594781116281e+01 3.5549766854714862e+00 3.4144386278199775e+01 7 7 0
165 2 1.0185940339651808e+01 4.0948623907538195e+00 3.7063841862333256e+01 1 8 0
293 1 9.7293495137484598e+00 2.2933067811896195e+00 3.7241454318925435e+01 0 -6 0
294 2 9.3919160607833660e+00 1.4839487666445610e+00 3.7590981496670473e+01 0 -6 0
507 2 9.8785593823989313e+00 2.2364874665287027e+00 4.3420133475468987e+01 -1 1 0
457 1 9.2112645387011529e+00 5.0642324615327794e-01 3.9732765972309259e+01 6 -3 0
506 1 9.4533468796481213e+00 3.1259492841452792e+00 4.3323401833400467e+01 -1 1 0
235 1 8.2265559469045648e+00 1.6797433597819376e+00 4.1476433690653920e+01 -1 -10 0
443 1 8.1024590883682013e+00 2.3637077662389205e+00 3.8027008179191569e+01 -10 2 0
237 2 8.4886255335661502e+00 1.8263254561604776e+00 4.0559149963640586e+01 -1 -10 0
196 1 1.0210581501736737e+01 4.0485572826356222e+00 4.0111174310218992e+01 2 -2 0
236 1 7.7848826541463652e+00 2.4007847948002436e+00 4.0171036819821502e+01 -1 -10 0
444 2 7.3000161611866314e+00 2.9864661056922306e+00 3.8332465149983761e+01 -10 2 0
19 3 9.1788526496585501e+00 6.7037353236048620e+00 3.6862471292558032e+00 -1 0 0
41 2 8.2955566362058999e+00 8.2189824812343435e+00 2.7720831686098046e+00 -1 0 0
23 2 8.2315979312946546e+00 5.1480603364806159e+00 2.7412882890316372e+00 -1 0 0
42 2 1.0084659767619151e+01 8.2024429096398439e+00 4.5146418160992035e+00 -1 0 0
28 2 7.7627316486572493e+00 6.6372678391113098e+00 5.0623266833850344e+00 -1 0 0
24 2 9.9995380678550365e+00 5.1940318477133109e+00 4.6185166682743795e+00 -1 0 0
21 2 1.0420894040118862e+01 6.7644865880503984e+00 2.2101915106672920e+00 -1 0 0
20 3 7.0251520158219982e+00 5.1674081782138810e+00 1.2353568501152015e+00 -1 0 0
22 2 7.7092470795992991e+00 6.6283354898269264e+00 5.6060529790545388e-01 -1 0 0
30 2 1.0051603247973439e+01 5.2422761791384955e+00 9.0348356141237183e+00 -1 0 0
29 2 8.3386693302431762e+00 5.1516493257088252e+00 7.2405095350857147e+00 -1 0 0
35 2 8.2152368554638340e+00 5.2807624404246249e+00 1.2029485083694274e+01 -1 0 0
34 2 7.6185214120204439e+00 6.7399454567047110e+00 9.5651694768513806e+00 -1 0 0
48 2 1.0038729284128749e+01 8.1808276439583043e+00 9.1113328708263275e+00 -1 0 0
25 3 9.1143556874245792e+00 6.8224612292246531e+00 8.0491971373763924e+00 -1 0 0
53 2 8.1932906105190337e+00 8.1901286228328711e+00 1.1913080434882213e+01 -1 0 0
47 2 8.1161134324983610e+00 8.2885661373381794e+00 7.3015354241579464e+00 -1 0 0
31 3 9.2353141521544320e+00 6.8463822896594948e+00 1.2750403420714878e+01 -1 0 0
180 2 7.8203684234350099e+00 6.6200243102400540e+00 1.4507850526810367e+01 0 0 0
36 2 1.0123773171223009e+01 5.3667469818544626e+00 1.3634468266072520e+01 -1 0 0
54 2 9.8173166709791531e+00 8.3305923475515993e+00 1.3660555840124871e+01 -1 0 0
282 2 9.8802161482981319e+00 5.9364975613839581e+00 1.6214812870590496e+01 -6 -19 0