LAMMPS data file via write_data, version 5 Jun 2019, timestep = 1020000

504 atoms
3 atom types

0.0000000000000000e+00 1.0755688111543584e+01 xlo xhi
0.0000000000000000e+00 9.7477520000000002e+00 ylo yhi
0.0000000000000000e+00 4.8622300000000003e+01 zlo zhi

Masses

1 1
2 16
3 47.86

Atoms # atomic

63 3 2.8246330922964114e+00 1.5710942809219179e+00 1.4365020367043682e+00 1 2 0
77 2 3.1252881724966248e+00 4.2403604441688740e+00 4.1364863267936220e+00 1 2 0
84 2 1.4074142682520643e+00 1.9298673842959713e+00 2.6615696934578725e+00 1 2 0
94 2 1.6790216486346679e+00 1.0080204794244672e+00 5.3640972286735442e+00 1 3 0
71 2 2.8012968556868008e+00 3.5047855815436373e+00 1.5050363379036442e+00 1 2 0
82 2 4.2668730459868112e+00 9.8837592668968588e-01 2.8240924445847280e+00 1 3 0
15 3 2.4229067910394117e-01 1.4817845674901244e+00 4.0740047092679790e+00 1 2 0
76 3 1.6775507606207534e+00 3.9316801459444122e+00 2.9381135539001746e+00 1 2 0
64 3 4.2959074094465048e+00 3.7307512254955335e+00 1.2205525350967214e-01 1 2 0
96 2 4.3021767045882644e+00 1.8058226420154977e+00 5.4795566769858821e+00 1 2 0
88 3 4.4116044932299019e+00 3.8087556533214677e+00 5.5910024106443661e+00 1 2 0
5 2 2.8027206369441382e-01 4.2750580481252785e+00 1.4864407927495993e+00 1 2 0
23 2 7.0980483950587134e-02 3.4886481026785319e+00 3.9973863537249574e+00 1 2 0
72 2 4.2884766380135195e+00 1.8052458401974878e+00 1.7045678470931835e-01 1 2 0
463 1 7.1050166836766571e-01 1.4122305893875475e+00 4.6217004808511319e-02 1 3 1
100 3 1.6046687502764538e+00 3.9545202040159877e+00 8.2157578052520464e+00 1 2 0
112 3 4.4337275189126508e+00 3.8396336220653278e+00 1.0890499308325751e+01 1 2 0
106 2 4.2769427774804836e+00 1.1088638450191035e+00 8.2517406952373360e+00 1 3 0
101 2 2.9805661632950549e+00 4.4690352623510412e+00 9.5558054723336454e+00 1 2 0
118 2 1.5332939604915008e+00 1.0961313219182609e+00 1.0885739367749494e+01 1 3 0
95 2 2.8351051789367641e+00 3.4471450872383307e+00 6.8647483408892187e+00 1 2 0
120 2 4.3146939103995638e+00 1.9196105357593995e+00 1.1005400692317618e+01 1 2 0
87 3 2.8743798022666431e+00 1.4570431758593587e+00 6.8707858188525295e+00 1 2 0
108 2 1.5395131411088254e+00 1.8566408828681220e+00 8.1163885201784680e+00 1 2 0
39 3 1.7100298470004788e-01 1.4432448516277983e+00 9.5449563564741808e+00 1 2 0
29 2 3.2909673743928552e-01 4.4496992615213395e+00 6.8056452196010833e+00 1 2 0
47 2 3.0497653937797364e-01 3.4690570734817796e+00 9.6115215065408446e+00 1 2 0
119 2 2.9654720515115369e+00 3.5025509292360013e+00 1.2107803400038945e+01 1 2 0
53 2 3.7996040894247007e-01 4.4313933956969942e+00 1.2097003756813940e+01 1 2 0
319 1 2.0573477934033897e+00 3.9482592608009046e+00 1.1916734867138722e+01 1 2 0
257 1 3.7101232221747360e-01 1.4881531431014192e+00 1.3521674953241082e+01 1 3 0
382 1 4.6420468104716086e+00 4.2746330517021969e+00 1.5955577751914223e+01 0 1 0
271 1 1.4917370419881892e+00 2.0846469602057285e+00 1.4384838338153768e+01 1 3 0
270 2 4.1921962897121992e+00 1.3914622637623721e+00 1.3752281112076432e+01 1 2 0
265 1 2.5714546216950764e+00 3.5830325056204058e+00 1.5866038031333687e+01 -4 -5 0
266 1 1.4503332850148229e+00 3.0126989633722743e+00 1.6923282475042079e+01 -4 -5 0
381 2 1.3029077939584135e+00 1.8384150293785211e+00 1.3431544722612568e+01 1 3 0
269 1 4.1694133927914114e+00 2.2484511999261865e+00 1.4207123731858420e+01 1 2 0
267 2 1.6804544952130185e+00 3.1436690188713139e+00 1.6007853134748338e+01 -4 -5 0
384 2 4.0834730478264127e+00 4.1265675895770002e+00 1.5146355610009008e+01 0 1 0
298 1 5.1945364763081256e+00 1.9760415093386301e+00 1.7635360577443201e+01 -4 3 0
137 1 2.4436912143582845e-01 4.2749724949270158e+00 1.5738389606774776e+01 2 -5 0
300 2 4.9998742632590369e+00 9.6771621122131890e-01 1.7667101917752120e+01 -4 3 0
205 1 4.1193607831604462e+00 3.6856772969119234e-01 1.4781020445419305e+01 -5 -3 0
111 3 2.9017867253126894e+00 1.4613685220024248e+00 1.2190299381007225e+01 1 2 0
383 1 4.3235139750365450e+00 4.8222916982590922e+00 1.4483143072271011e+01 0 1 0
206 1 4.3504518135032315e+00 8.0646329877223977e-02 1.6259067978838285e+01 -5 -3 0
219 2 2.6565164468472586e+00 3.8921122616625969e-01 1.9137955539525095e+01 -3 -2 0
158 1 1.0108630953785334e+00 3.2290672409128263e+00 1.9437023955570279e+01 3 0 0
171 2 3.7862977486554805e+00 3.5664957892516451e+00 2.2838966489080075e+01 -1 -5 0
157 1 1.4183830219403610e+00 1.6711129444708159e+00 1.9403162208611747e+01 3 0 0
367 1 5.1409578177007296e+00 3.4867627197468622e+00 2.1400148706332356e+01 1 1 0
274 1 3.5482460542885796e+00 4.3405493691104793e+00 1.9562603077990488e+01 -7 -4 0
170 1 2.9864896067304847e+00 4.1970125124715176e+00 2.2745960221077524e+01 -1 -5 0
169 1 3.3440451694408275e+00 2.7295621509839076e+00 2.2798333042065128e+01 -1 -5 0
150 2 6.5024745134236128e-01 2.4498143469688833e+00 2.3512540193191388e+01 0 -3 0
159 2 6.2984894712725625e-01 2.2560278545592851e+00 1.9310835899363187e+01 3 0 0
276 2 2.5989386483516510e+00 4.3374044434387073e+00 1.9203949565945706e+01 -7 -4 0
360 2 3.6209924071043300e+00 7.9909125418298110e-01 2.1798759292974257e+01 2 0 0
217 1 3.5427643589443303e+00 5.3284425331848395e-01 1.8776775974230066e+01 -3 -2 0
358 1 3.0964928568239105e+00 8.0151678667402415e-01 2.0914169086719536e+01 2 0 0
149 1 5.8007608683109579e-01 3.4148907075258990e+00 2.3571760991022497e+01 0 -3 0
401 1 4.3325904898809204e+00 3.1760271490230285e+00 2.4650655059813683e+01 -3 -5 0
255 2 4.1879683498684939e+00 4.4543680339056202e+00 3.0262594822266244e+01 2 -10 0
254 1 4.0300259355011629e+00 3.5584701718350473e+00 3.0052705350082292e+01 2 -10 0
400 1 4.9455831118691060e+00 2.2883708149161679e+00 2.6019407532117441e+01 -3 -5 0
468 2 1.8688348268408710e+00 2.0549145452710582e+00 2.6076523883189971e+01 -4 -2 0
495 2 4.9964530296404330e+00 8.4843174850126057e-01 2.7002712457874768e+01 -2 -8 0
365 1 4.3753950353184123e+00 1.2645866155371550e+00 2.9944944571554235e+01 1 -1 0
402 2 5.0148252531948891e+00 3.1705175987389489e+00 2.5394672720441196e+01 -3 -5 0
467 1 1.0626327770856026e+00 2.3161684164464318e+00 2.6532671191703070e+01 -4 -2 0
148 1 1.1183804851770796e+00 2.1875558357141718e+00 2.4370197544841535e+01 0 -3 0
466 1 1.9870575546126226e+00 1.0857007433798762e+00 2.6264756333319042e+01 -4 -2 0
366 2 3.5675072156633871e+00 1.7290988863225829e+00 2.9671948571462167e+01 1 -1 0
310 1 2.2588069493282075e+00 4.2114039106456067e+00 2.6485622187856002e+01 -1 -6 0
364 1 3.5615155782447419e+00 1.7243512342440528e+00 2.8701663737741917e+01 1 -1 0
494 1 4.5294863682400734e+00 2.7298715519510491e-01 2.6350140630610571e+01 -2 -8 0
386 1 9.1886759734885104e-01 1.3411678058709247e+00 3.1170137071159484e+01 -7 -5 0
175 1 3.9946135471242736e+00 1.8150595632955948e+00 3.3260910564523826e+01 -9 -4 0
387 2 1.2553755049661426e+00 4.5721777837094213e-01 3.0957193755318862e+01 -7 -5 0
474 2 1.4343779570036541e+00 3.0944527854419696e-01 3.3842442491446107e+01 2 -5 0
385 1 2.1228583565188313e+00 7.1414988037133764e-01 3.0517414600288504e+01 -7 -5 0
393 2 2.2823953284289917e+00 3.9712246733743197e+00 3.4663155248757597e+01 -2 5 0
154 1 5.0669733156051660e+00 6.6216505997012542e-01 3.1619101432263932e+01 -6 -3 0
473 1 8.5869716459011614e-01 9.5004047585462315e-01 3.3350134372624616e+01 2 -5 0
177 2 4.1262245709194136e+00 8.4007660511654214e-01 3.3332628092695820e+01 -9 -4 0
457 1 1.2917871866035759e+00 3.2517552866445212e+00 3.3436495257826010e+01 -1 -1 0
176 1 3.2342964643169654e+00 3.9996522899274117e-01 3.3583510440174138e+01 -9 -4 0
253 1 4.3669026161255315e+00 4.4495536210153990e+00 3.1278153516787988e+01 2 -10 0
392 1 2.3448377261628983e+00 3.6367665527899353e+00 3.5570920992959607e+01 -2 5 0
459 2 7.4501074882103402e-01 2.7025779108245809e+00 3.2729880752330644e+01 -1 -1 0
472 1 1.0621734025545486e+00 2.3217715691178337e-01 3.4808352816088700e+01 2 -5 0
458 1 3.9000878970156616e-01 3.5480427599697699e+00 3.2366402363269735e+01 -1 -1 0
280 1 4.8376643357343792e+00 1.2823996644025677e+00 3.5013481526430475e+01 1 -3 0
180 2 4.6202869025252884e+00 3.9899642170344261e+00 3.2952715345315198e+01 2 -3 0
179 1 3.8929301592629040e+00 4.1022752690345854e+00 3.3583022502613687e+01 2 -3 0
143 1 4.2589779979046227e+00 8.4448213995098909e-01 3.9345861920788614e+01 -1 -3 0
322 1 1.7070965083932288e+00 1.9645427843335888e+00 4.0670382865989041e+01 3 1 0
323 1 5.9091480308790767e-01 8.0525551494215986e-01 4.0573530519525171e+01 3 1 0
419 1 1.5546493631052088e-01 2.8146420128495029e+00 3.9474864051557063e+01 0 -6 0
129 2 2.6547640967619075e+00 3.3758357957909482e+00 3.7181302646857894e+01 4 3 0
324 2 6.7596779085424297e-01 1.7486437144256253e+00 4.0652607516071278e+01 3 1 0
128 1 3.1032553433605852e+00 3.9866340105470459e+00 3.7822275655799679e+01 4 3 0
127 1 3.0646023658584203e+00 2.4812285145838606e+00 3.7282709852778261e+01 4 3 0
167 1 3.8297094766095658e+00 2.2112521698685379e+00 4.1029811230728448e+01 -1 -7 0
166 1 3.0021952175782998e+00 3.0194672048875493e+00 4.2105227938347170e+01 -1 -7 0
168 2 3.0623955382609980e+00 2.8670363279972739e+00 4.1133920928666612e+01 -1 -7 0
296 1 3.3630484158767993e+00 4.1748615666231421e+00 4.0354535184221312e+01 6 -6 0
418 1 4.9346228173433049e-01 3.5205592352309614e+00 3.8094206451713248e+01 0 -6 0
492 2 3.6340506811895823e+00 9.2762504574707827e-01 3.7622597344799111e+01 5 -3 0
144 2 4.6793019276458061e+00 5.8767737427150923e-01 4.0184674795220133e+01 -1 -3 0
490 1 4.4548830849622867e+00 1.0220442527793037e+00 3.7188615947664225e+01 5 -3 0
491 1 3.1651703233256416e+00 1.2119674006820093e-01 3.7291246947223499e+01 5 -3 0
394 1 2.8632520003100375e+00 1.1440984242312295e+00 4.5293240352473035e+01 -11 -3 0
396 2 3.4929487791031359e+00 1.9289297744145983e+00 4.5478743170520254e+01 -11 -3 0
70 2 1.5286747715547140e+00 1.1128132919188696e+00 4.8603734955140595e+01 1 3 -1
222 2 2.7503608492122043e+00 3.7795669208507756e+00 4.7312069904383051e+01 1 2 0
340 1 1.7708078740386251e+00 3.8830299469971123e+00 4.7397739947279661e+01 1 3 0
221 1 8.5114364693406303e-02 2.7205673884101405e+00 4.6855828735458402e+01 1 2 0
395 1 3.2786234899720705e+00 2.6508274539917456e+00 4.4788764565790146e+01 -11 -3 0
460 1 1.1212586208906354e+00 3.9377156151057618e-01 4.4646355511516219e+01 1 -4 0
220 1 2.8076032761387819e+00 2.9014499380450660e+00 4.6803977038319026e+01 1 2 0
438 2 3.1896585173862078e+00 3.9580367361026139e+00 4.3594969643747142e+01 -1 -8 0
342 2 5.4840015550499874e-02 3.5677983238065099e+00 4.7371598383987553e+01 1 3 0
346 1 4.9277011881672408e+00 1.2581150079396166e+00 4.4288568099521989e+01 -3 -8 0
437 1 4.0723465764525635e+00 4.4355700958058621e+00 4.3427182779900747e+01 -1 -8 0
436 1 2.4897041490428347e+00 4.7042764439774114e+00 4.3648884419068736e+01 -1 -8 0
62 3 1.4048458854198469e+00 8.4834670020056908e+00 2.1608464622672022e-01 1 2 0
69 2 2.9015849887246357e+00 9.2158803273838465e+00 1.4670629780197566e+00 1 2 0
90 2 4.4268065485762298e+00 5.8865388576301712e+00 5.4972595195263461e+00 1 2 0
21 2 2.1906572709892128e-01 9.2139284038323552e+00 4.2229995090528503e+00 1 2 0
92 2 1.7199345034089368e+00 6.6692744388387313e+00 5.5964882674815852e+00 1 2 0
78 2 1.5885907835122191e+00 5.8092116222308805e+00 2.9622057136181965e+00 1 2 0
80 2 4.0903293908644365e+00 6.7638524454634856e+00 2.6576403619073252e+00 1 2 0
73 3 2.9861427034730852e+00 6.2881518116483459e+00 4.2576214238225312e+00 1 2 0
86 3 1.6985291418255930e+00 8.8295437365901996e+00 5.3428486543271934e+00 1 2 0
79 2 3.0178337652882945e+00 8.2125821078901158e+00 4.2064089182104505e+00 1 2 0
74 3 4.2471615710747352e+00 8.8143632880880940e+00 2.6608198447917291e+00 1 2 0
68 2 1.6212832377209261e+00 6.6932730782053902e+00 4.2926596262061861e-01 1 2 0
7 2 2.2821442429298378e-01 8.3441227813770542e+00 1.6015369227959175e+00 1 2 0
66 2 4.0424957795223193e+00 5.7725150275389865e+00 1.8013834599255987e-01 1 2 0
1 3 2.4051231437771081e-01 6.1537393957168662e+00 1.5733699059773956e+00 1 2 0
464 1 3.1411283331951001e+00 6.1810137485902086e+00 2.5642208053947046e-01 1 2 1
102 2 1.5452426487813298e+00 5.8577907799293367e+00 8.1763059611481275e+00 1 2 0
116 2 1.8920478836376340e+00 6.8390130720714204e+00 1.1115554464875917e+01 1 2 0
103 2 2.9882453103523554e+00 8.4640445542463798e+00 9.6135209933637888e+00 1 2 0
98 3 4.1968682822584968e+00 8.9061864968152396e+00 8.3055369085059692e+00 1 2 0
114 2 4.4437526152636933e+00 6.1918854707270610e+00 1.0845765117672482e+01 1 2 0
93 2 2.8724786206302997e+00 9.1898312873857915e+00 6.9239934819549624e+00 1 2 0
110 3 1.7451459522128714e+00 8.9552051231485876e+00 1.1063208889517236e+01 1 2 0
104 2 4.2771118013946312e+00 6.9566871493249964e+00 8.1215837389405205e+00 1 2 0
97 3 2.9320371520683466e+00 6.3638535894210069e+00 9.6046807231918763e+00 1 2 0
31 2 3.3551996229552966e-01 8.4021902107363911e+00 6.7812481138139118e+00 1 2 0
45 2 2.3746545037855876e-01 9.3074941608691155e+00 9.4770265934810709e+00 1 2 0
25 3 2.0416478938846203e-01 6.4298691229772436e+00 6.7824759073580356e+00 1 2 0
49 3 3.5692187405347126e-01 6.2284905065582672e+00 1.2154603835984723e+01 1 2 0
183 2 1.7454643882456453e+00 5.9818088738822839e+00 1.3734269929760371e+01 1 2 0
435 2 4.5947122567388696e+00 7.0233120530837976e+00 1.6937051719115203e+01 2 -9 0
182 1 4.7305144450903569e+00 6.7296540088679668e+00 1.4513118494195727e+01 1 2 0
502 1 2.8089996836043860e+00 5.9632991794455634e+00 1.3526197421450874e+01 1 2 0
207 2 3.9757404189174901e+00 9.3648437964214395e+00 1.5429892454215819e+01 -5 -4 0
504 2 4.4337662487845479e+00 6.2502254343568255e+00 1.3649801465819186e+01 1 2 0
181 1 1.7987338371114558e+00 6.6517016783120884e+00 1.4502104920460313e+01 1 2 0
448 1 1.6487801505982371e+00 7.5650619834021429e+00 1.7603146838801248e+01 1 -1 0
433 1 3.7017323783734590e+00 6.9185181995951393e+00 1.7375959184286231e+01 2 -9 0
152 1 8.5865664256546059e-01 8.5912105518961521e+00 1.5508947795821621e+01 3 3 0
153 2 1.6922267687614623e+00 8.0266330370540651e+00 1.5584180644728452e+01 3 3 0
151 1 2.4394368200066943e+00 8.7588586990353487e+00 1.5442961453343438e+01 3 3 0
434 1 4.4722006809940291e+00 7.9322945492775867e+00 1.6563080204154126e+01 2 -9 0
117 2 2.9399448356862390e+00 9.2885562665503922e+00 1.2363404233438022e+01 1 2 0
380 1 5.0198620413936839e+00 8.9284341315994595e+00 1.2730146018321795e+01 1 2 0
55 2 2.6427303005759190e-01 8.2315758384441136e+00 1.2167511167677306e+01 1 2 0
449 1 1.5702712147325113e+00 7.1157084621504962e+00 1.9103688408904443e+01 1 -1 0
260 1 3.8640892065633530e+00 7.6896914667228859e+00 2.3459634497548322e+01 3 1 0
213 2 4.2234320001418063e-01 6.6193633371708609e+00 2.0260669803449478e+01 -1 -5 0
259 1 4.1501645645627283e+00 7.3655744478970346e+00 2.1855896620993100e+01 3 1 0
229 1 2.3885919877855528e+00 6.5287929547267955e+00 2.2513606069516520e+01 -1 -8 0
218 1 2.4127346298987038e+00 9.3266619767258323e+00 1.8760400886822477e+01 -3 -3 0
359 1 3.3624877495902354e+00 9.6722752670955412e+00 2.2161322109572936e+01 2 -1 0
275 1 2.4950580864314098e+00 5.2457831015968388e+00 1.8800776069986494e+01 -7 -4 0
261 2 3.5538796708619831e+00 7.7919342501175040e+00 2.2483693714161461e+01 3 1 0
211 1 7.5631503624632357e-01 6.1892855799202993e+00 2.1065977306231499e+01 -1 -5 0
231 2 1.6963598511477882e+00 5.7295432134276085e+00 2.2606557504735047e+01 -1 -8 0
230 1 1.1210710384100897e+00 6.0057973814474499e+00 2.3327153528192763e+01 -1 -8 0
450 2 2.2262665674293718e+00 7.4668564208418013e+00 1.8379540959648537e+01 1 -1 0
294 2 3.7632979189395526e+00 8.1010479786449370e+00 2.5273531968882853e+01 2 -4 0
405 2 1.8773421064463909e+00 6.1469709010468261e+00 3.0154274083692979e+01 -2 -3 0
404 1 1.2381540821511228e+00 5.3678832494151276e+00 3.0055787633818724e+01 -2 -3 0
345 2 1.6217997692261443e+00 8.6702314784692547e+00 2.6413996206228994e+01 -2 -11 0
343 1 9.2713166877718067e-01 8.4397828212576727e+00 2.5803643415466968e+01 -2 -11 0
311 1 3.1254384995106634e+00 5.3787260961523273e+00 2.6932309978987718e+01 -1 -6 0
412 1 7.6657878393765289e-01 7.8252907716814120e+00 2.9207829501879523e+01 0 -2 0
200 1 3.5853614979557341e-01 5.8998323914066422e+00 2.5777170470421325e+01 -3 -5 0
293 1 4.3617917565786524e+00 7.4173832514607350e+00 2.5522770892195101e+01 2 -4 0
351 2 5.3166099903417887e+00 5.7185506791078007e+00 2.6656412986492082e+01 3 -10 0
292 1 2.9662561223261488e+00 7.9279174637884768e+00 2.5868649508961077e+01 2 -4 0
403 1 2.7592776243652897e+00 5.6887184945923792e+00 3.0026224888378650e+01 -2 -3 0
414 2 4.7094296773029132e-01 8.7137224057462372e+00 2.8908681243119005e+01 0 -2 0
344 1 1.4019654259586669e+00 8.4683628441544201e+00 2.7378234716135992e+01 -2 -11 0
413 1 8.2223971807172713e-01 9.4615745484310096e+00 2.9540228838033698e+01 0 -2 0
312 2 2.1982164902464647e+00 5.1280001043175396e+00 2.6670205286078989e+01 -1 -6 0
480 2 4.8639247304688240e+00 6.4565238950305668e+00 3.6321012197486894e+01 -3 0 0
165 2 2.1083082081964299e+00 6.7370055736308956e+00 3.5152424525743676e+01 -7 -5 0
164 1 1.3124753502611168e+00 6.1846491272837740e+00 3.5509091013260552e+01 -7 -5 0
278 1 1.6405869563730848e+00 6.8860186357329169e+00 3.1883262005126532e+01 1 -3 0
279 2 1.2277537458666423e+00 7.2419119336931299e+00 3.2698721320531163e+01 1 -3 0
287 1 4.2970414466466469e+00 7.4976854427027524e+00 3.3474602613300668e+01 3 -1 0
286 1 5.0116674889227468e+00 8.4007300241806941e+00 3.2492302679724311e+01 3 -1 0
478 1 3.9682813642355459e+00 6.3376391705898056e+00 3.5991073404740710e+01 -3 0 0
288 2 5.0907422092890373e+00 7.4989133688427376e+00 3.2923520073305149e+01 3 -1 0
163 1 1.7466723577580394e+00 6.9591310681254628e+00 3.4185653974966634e+01 -7 -5 0
277 1 1.0578235820901523e+00 8.2256500918004818e+00 3.2641989925890648e+01 1 -3 0
131 1 2.2137101616320738e+00 7.9049032509130148e+00 3.6310751877485032e+01 1 -2 0
479 1 5.3764104166684827e+00 5.6544745972623458e+00 3.6037679083077066e+01 -3 0 0
391 1 2.4301399144448492e+00 4.9142074656907759e+00 3.4857460774216356e+01 -2 5 0
130 1 9.9075398114199487e-01 8.6663416946586551e+00 3.6890528909148088e+01 1 -2 0
390 2 4.3369217968376328e-01 8.8711933406096097e+00 4.0614328601206260e+01 -1 -8 0
234 2 1.7388744215417393e+00 7.1170581143371159e+00 3.9189705146088798e+01 5 -3 0
233 1 2.2811324006731786e+00 6.2687586449324302e+00 3.9080127573946100e+01 5 -3 0
232 1 1.9068658144883184e+00 7.6854833271266427e+00 3.8426777705247865e+01 5 -3 0
388 1 6.8926347511993902e-01 8.5854344558800690e+00 4.1526831237793260e+01 -1 -8 0
426 2 3.9590301630364992e+00 7.7903448549780352e+00 4.1199223896563296e+01 3 -6 0
389 1 1.0655986728593825e+00 8.3130623929388694e+00 4.0000154902537020e+01 -1 -8 0
425 1 4.5284687186191057e+00 7.6049862627154781e+00 4.2103277206977474e+01 3 -6 0
132 2 1.9756486887620437e+00 8.6445339433770840e+00 3.6978385551822150e+01 1 -2 0
295 1 4.3589751977386779e+00 5.2661376301766767e+00 3.9728879614382109e+01 6 -6 0
424 1 4.1388498678598884e+00 7.1448594878492901e+00 4.0479164673723446e+01 3 -6 0
297 2 3.4540983645378507e+00 4.9098811372359039e+00 3.9597174189612112e+01 6 -6 0
302 1 2.6523138399986621e+00 8.0782108065864850e+00 4.1978140660367856e+01 -8 -9 0
452 1 5.1876378960132907e+00 6.7576843623940226e+00 3.7966938008032358e+01 4 -4 0
142 1 4.1508645933150321e+00 9.5600284448857895e+00 4.0621259047995345e+01 -1 -4 0
453 2 5.3517095489352640e+00 6.6783066098250590e+00 3.8960237056429321e+01 4 -4 0
371 1 4.6691922715250858e+00 7.5210125445639369e+00 4.4436309894346593e+01 -4 -10 0
252 2 2.8191313327571472e+00 8.3985181983660002e+00 4.7239490553246227e+01 0 3 0
372 2 5.1169972356330460e+00 7.8740688680197435e+00 4.3621022082274578e+01 -4 -10 0
301 1 1.8915192571188162e+00 7.3010814023437165e+00 4.3151747090843010e+01 -8 -9 0
250 1 7.9898048201060301e-01 5.8776892522167659e+00 4.4508109711438401e+01 -1 3 0
353 1 4.6123388927854914e-01 8.9536081788259860e+00 4.6550078551921736e+01 -3 1 0
461 1 2.1984356297503753e+00 8.9645188060762067e+00 4.4218285628425107e+01 1 -5 0
375 2 1.2641474878268055e+00 5.7913507914621576e+00 4.3572601361774502e+01 0 2 0
489 2 3.7902942843867442e+00 6.3225625079356140e+00 4.5561242664177726e+01 0 -1 0
487 1 3.4238564323658549e+00 6.4586223227267485e+00 4.6402805326058683e+01 0 -1 0
465 2 9.9647692308536776e-02 8.5337026818894515e+00 4.7438430280870932e+01 1 2 0
374 1 3.7898445629821436e+00 8.7149652081626883e+00 4.7437645210416008e+01 1 2 0
316 1 2.6058830458704185e+00 8.9258325059867012e+00 4.6473895991475857e+01 -3 -3 0
488 1 3.6444177343039028e+00 5.3859133524033131e+00 4.5443026624229709e+01 0 -1 0
303 2 1.9930369928995157e+00 8.2537523788035454e+00 4.2751910966779022e+01 -8 -9 0
251 1 5.2382510902432733e-01 5.6773550236368449e+00 4.2972521550085673e+01 -1 3 0
238 1 1.3311534517698564e-01 6.6674596961249950e+00 4.6647563466950437e+01 8 0 0
318 2 5.3479353661732434e+00 8.7865548114455354e+00 4.7315027007508576e+01 -3 -3 0
317 1 5.3537972575039374e+00 9.6139672302246915e+00 4.6771709149825767e+01 -3 -3 0
462 2 1.9319376060588631e+00 9.6483466363024402e+00 4.4922165350166935e+01 1 -5 0
4 3 9.6988713944909453e+00 3.5907747138667503e+00 2.7641103735682437e-01 0 2 0
3 3 8.2703115773435822e+00 1.3648269327792697e+00 1.4436688460035254e+00 0 2 0
28 3 9.7071706698378311e+00 4.0487352076212950e+00 5.4137337180435869e+00 0 2 0
24 2 6.8855594820353412e+00 1.9154023683799899e+00 2.9008256148210263e+00 0 2 0
11 2 8.1563894500123624e+00 3.5390056104839558e+00 1.2679735714845981e+00 0 2 0
65 2 5.5191433476805134e+00 4.2581566014814385e+00 1.3256420903978503e+00 1 2 0
36 2 9.7595577893321064e+00 1.9572754005928767e+00 5.5636188770391026e+00 0 2 0
16 3 6.9400216930363827e+00 3.9238677573520349e+00 2.7671072392958989e+00 0 2 0
34 2 7.0509421590194687e+00 1.0018832526604275e+00 5.4199342807427318e+00 0 3 0
22 2 9.5378872638291305e+00 1.2492620549355287e+00 2.8300531543880716e+00 0 3 0
83 2 5.7419184415819364e+00 3.5255838064239655e+00 4.3529582991470717e+00 1 2 0
17 2 8.3053488536040057e+00 4.3512947666792039e+00 4.0311728543590348e+00 0 2 0
373 1 5.9664824307770195e+00 1.5449181154312897e+00 1.7130210626357562e-01 1 3 1
75 3 5.6483963699020645e+00 1.3764444158661397e+00 4.1062855221824996e+00 1 2 0
10 2 6.8271061315156265e+00 1.0536810815315754e+00 2.6164781816648458e-01 0 3 0
12 2 9.5531191614273094e+00 1.7225638729314030e+00 2.3219309807395461e-01 0 2 0
46 2 9.5557354526581406e+00 1.2055285538254104e+00 8.2032319560022486e+00 0 3 0
48 2 6.8471936414767685e+00 1.9513171223323467e+00 7.9899636705941930e+00 0 2 0
60 2 9.8166224437733405e+00 1.9584854018739968e+00 1.1037488468092739e+01 0 2 0
40 3 7.0539935698409852e+00 3.9163097147430292e+00 8.1357454423745601e+00 0 2 0
52 3 9.8557525435465010e+00 4.0930329527729574e+00 1.0822488346354790e+01 0 2 0
35 2 8.4584578706011477e+00 3.5210587433865856e+00 6.8422459999825112e+00 0 2 0
58 2 7.1101273039093833e+00 1.1528496154121144e+00 1.0919195251424837e+01 0 3 0
41 2 8.2916244010816467e+00 4.2822072180299289e+00 9.4249221173247122e+00 0 2 0
27 3 8.3745564896099847e+00 1.5376490219712935e+00 6.7567525153637558e+00 0 2 0
99 3 5.7195666906147427e+00 1.4390048909465361e+00 9.4036318730478303e+00 1 2 0
107 2 5.7192920810694083e+00 3.5146376993058372e+00 9.5560980062399903e+00 1 2 0
89 2 5.5855310270364829e+00 4.3715133508427373e+00 6.9049080550472421e+00 1 2 0
113 2 5.7524754913434863e+00 4.3177690311630004e+00 1.2006626893548415e+01 1 2 0
59 2 8.4972808503635946e+00 3.5211682407817935e+00 1.2088842991921759e+01 0 2 0
51 3 8.4454354313686224e+00 1.3972903807427934e+00 1.2152657120275947e+01 0 2 0
203 1 9.3476410307989450e+00 1.6349390097623467e-01 1.4844179689804282e+01 -3 -6 0
272 1 9.4782694162238368e+00 2.2649130482963700e+00 1.4426800774267280e+01 0 3 0
471 2 7.8166384897923944e+00 3.2118013535981764e+00 1.6040121819188428e+01 -1 -2 0
469 1 8.1303119033535243e+00 2.4479085862966419e+00 1.6633491645965840e+01 -1 -2 0
268 1 5.9042139127742432e+00 1.5609078395289038e+00 1.3500548036649395e+01 1 2 0
321 2 9.4039060808524173e+00 1.4917283297017632e+00 1.3848416571106080e+01 0 2 0
470 1 8.5724136421730766e+00 3.8719447893644885e+00 1.6105844514550153e+01 -1 -2 0
273 2 6.8670385306097446e+00 1.6585734236174754e+00 1.3768900908673533e+01 0 3 0
320 1 6.9416029043316945e+00 2.3376557108000795e+00 1.4435289762911420e+01 0 2 0
477 2 9.1305649311343355e+00 1.1135323120733616e+00 1.7913582395005907e+01 1 2 0
191 1 6.4425366515416878e+00 3.8332616978132545e+00 1.6787001974062164e+01 -5 5 0
192 2 5.6284283330086069e+00 3.6957984263051848e+00 1.7294146453248509e+01 -5 5 0
138 2 1.0207779937665501e+01 4.8371150635737177e+00 1.6001883097297096e+01 1 -5 0
442 1 7.5747499658167063e+00 3.9454913019933846e+00 1.2274838158757152e+01 1 2 0
190 1 5.5323814605937880e+00 4.3614059328777390e+00 1.8046916788940852e+01 -5 5 0
235 1 6.8398544924673708e+00 2.6362704252490904e-01 2.0336760211163831e+01 -7 0 0
376 1 8.5190775751085823e+00 4.5233933430136828e+00 1.9129131945375626e+01 -11 -3 0
162 2 1.0075637061589179e+01 9.6539847901127784e-01 2.1420180468137993e+01 -6 -4 0
377 1 8.2796262664700571e+00 2.9686729863522370e+00 1.9451761407186659e+01 -11 -3 0
378 2 8.0355907006568099e+00 3.8648557737210436e+00 1.9767467472739700e+01 -11 -3 0
440 1 6.7300838674697037e+00 1.4190212813218375e+00 2.2371392136017072e+01 -5 2 0
439 1 5.3959332488903691e+00 8.4940393905158518e-01 2.1712159458420171e+01 -5 2 0
368 1 6.4805400837101006e+00 3.8081863323684910e+00 2.0604421694646739e+01 1 1 0
416 1 7.5760441695370249e+00 3.5230567941216644e+00 2.3462677252484600e+01 -3 4 0
417 2 7.1684153551187988e+00 2.6425672372204763e+00 2.3583880722653035e+01 -3 4 0
299 1 5.6057292794874289e+00 6.5380038697522647e-01 1.8404825363045003e+01 -4 3 0
160 1 1.0545127659318233e+01 1.5349114612621535e+00 2.0742533279819281e+01 -6 -4 0
161 1 1.0439564075378408e+01 1.3407347407006349e+00 2.2251108870215560e+01 -6 -4 0
476 1 8.3882366776434658e+00 7.3730968693600696e-01 1.8398350153502310e+01 1 2 0
441 2 6.3375779338082374e+00 6.8216946400785738e-01 2.1886372316316127e+01 -5 2 0
369 2 5.5046883474982256e+00 4.0623198234503857e+00 2.0655437250422782e+01 1 1 0
237 2 7.0909809108698552e+00 1.4039297856807018e-01 1.9402414496525068e+01 -7 0 0
216 2 8.8630208789951084e+00 4.6000657192269179e+00 2.3030654739364646e+01 -7 -4 0
475 1 9.9113969913827216e+00 1.3311390221579051e+00 1.8529096348756710e+01 1 2 0
215 1 8.8135000533820840e+00 4.5647468263917625e+00 2.2050910577403457e+01 -7 -4 0
415 1 6.4727078877327262e+00 2.8242452896087586e+00 2.4287934810314955e+01 -3 4 0
406 1 9.5370503269293039e+00 2.4443691108753316e+00 2.6077600957605874e+01 0 -10 0
408 2 9.9801454812838237e+00 3.1078606599432139e+00 2.6768158220788997e+01 0 -10 0
309 2 8.6243316930733567e+00 3.7506441069192715e+00 2.8986120282056454e+01 2 -5 0
407 1 1.0113825380930241e+01 3.9902434757518774e+00 2.6288152488100490e+01 0 -10 0
307 1 9.0533522153431445e+00 3.4375568023442322e+00 2.8103124565441448e+01 2 -5 0
314 1 9.3189073238545834e+00 7.0128888599893824e-01 2.4980506832424862e+01 3 -3 0
315 2 8.6031872428285077e+00 1.2186618804973226e+00 2.5431306289402446e+01 3 -3 0
313 1 7.9686936052535504e+00 1.7490985794949658e+00 2.4812450720872697e+01 3 -3 0
493 1 5.8632652510469621e+00 3.7077696392543852e-01 2.7096224084019038e+01 -2 -8 0
308 1 7.9040350939581643e+00 4.4099618162854348e+00 2.8962538509197056e+01 2 -5 0
121 1 8.1225989961888398e+00 2.5724820610330328e+00 2.9886308389682352e+01 -1 -10 0
485 1 8.2969106299158497e+00 2.8924790402483330e-01 3.0028215013653973e+01 -1 -7 0
349 1 5.4190233096344169e+00 4.7768243577097369e+00 2.6365002573026160e+01 3 -10 0
146 1 9.7202612506553265e+00 4.2827712992866589e+00 3.0374555877942164e+01 -5 -5 0
281 1 5.9422717794301150e+00 5.7031326371655389e-01 3.5577939522297086e+01 1 -3 0
496 1 7.3731454410042749e+00 4.5063654311971266e+00 3.5691291164992649e+01 1 -6 0
122 1 8.3739902708490259e+00 2.2644101904670473e+00 3.1434347601180697e+01 -1 -10 0
123 2 8.1365865039058995e+00 1.8323374187973116e+00 3.0574908360860569e+01 -1 -10 0
357 2 8.8357364840118304e+00 2.2025570992006140e+00 3.3355938777115924e+01 -5 -2 0
147 2 1.0502501246729574e+01 4.4923699907132457e+00 3.0946225585351197e+01 -5 -5 0
498 2 8.2676334960664803e+00 4.4348014940526479e+00 3.5154211960996761e+01 1 -6 0
155 1 6.4955057324261603e+00 8.0844194827247673e-01 3.1142226735635433e+01 -6 -3 0
356 1 9.7842193599482226e+00 2.4909491573452875e+00 3.3411374367171042e+01 -5 -2 0
355 1 8.2954226861251605e+00 2.8709201303714904e+00 3.3880679679821007e+01 -5 -2 0
284 1 8.8241677208531843e+00 1.2454156698496230e-01 3.3854270285552502e+01 0 -8 0
178 1 5.3963556495834384e+00 4.4098273200497387e+00 3.3248440912819490e+01 2 -3 0
282 2 5.4141681122117928e+00 1.3608518169694419e+00 3.5823878898701651e+01 1 -3 0
156 2 5.6460492925273336e+00 4.7723429186659100e-01 3.0897705079481320e+01 -6 -3 0
325 1 9.7688644196496721e+00 2.2850418130629557e+00 3.7798032542922698e+01 5 0 0
210 2 7.6884523356248060e+00 1.7401386748476968e+00 4.1979433192901311e+01 1 -3 0
243 2 6.1475276304237809e+00 3.8628911982261860e+00 3.6863848996494482e+01 -2 -5 0
241 1 6.7261438306525756e+00 3.7729186737937526e+00 3.7656062034157991e+01 -2 -5 0
208 1 8.4758613203919868e+00 2.0141684574441254e+00 4.2411993258614984e+01 1 -3 0
334 1 6.6629369692788245e+00 2.8109005195926309e+00 4.1071375170358962e+01 -3 -11 0
336 2 6.3464744442430758e+00 3.6073325299089265e+00 4.0631626151635196e+01 -3 -11 0
335 1 7.2236478090442384e+00 3.8603370868321285e+00 4.0298973247619166e+01 -3 -11 0
187 1 9.7912513293879506e+00 1.5389227785556386e-01 3.6798440162524763e+01 -2 -5 0
428 1 9.2164473802240394e+00 4.5106667492227732e+00 3.9140182428144747e+01 1 -4 0
247 1 8.1460568452042477e+00 1.7213757325147946e-01 4.1290328236254403e+01 2 2 0
326 1 8.8122797650056910e+00 1.0862537379940571e+00 3.8372659614551054e+01 5 0 0
327 2 9.0825186202645565e+00 1.5525841104040399e+00 3.7561307104556384e+01 5 0 0
454 1 1.0445485493709390e+01 2.2995849080798161e+00 4.2151695339159019e+01 -2 -1 0
420 2 1.0542573975399614e+01 3.4260772749780641e+00 3.8853813877001585e+01 -1 -6 0
446 1 5.8712044746345029e+00 4.1789808640992563e+00 4.1998803133631078e+01 1 2 0