LAMMPS data file via write_data, version 5 Jun 2019, timestep = 1020000

504 atoms
3 atom types

0.0000000000000000e+00 1.0755688111543584e+01 xlo xhi
0.0000000000000000e+00 9.7477520000000002e+00 ylo yhi
0.0000000000000000e+00 4.8622300000000003e+01 zlo zhi

Masses

1 1
2 16
3 47.86

Atoms # atomic

11 2 2.8535005323818026e+00 3.6025626814875213e+00 1.2892129733934969e+00 -1 -1 0
22 2 4.4459580290132905e+00 1.1625398161548341e+00 2.7127786767461597e+00 -1 0 0
16 3 1.6824561906629223e+00 4.2008776054671291e+00 2.7742170697708177e+00 -1 -1 0
83 2 5.4989932633209926e-01 3.5747798685056749e+00 4.2230219926329244e+00 0 -1 0
28 3 4.4449847474185438e+00 4.0470489946340003e+00 5.4210780945768224e+00 -1 -1 0
3 3 2.9595537158391725e+00 1.6195558642525898e+00 1.4822624942248337e+00 -1 -1 0
34 2 1.6991237558263175e+00 1.1811548365351723e+00 5.3767733934307289e+00 -1 0 0
24 2 1.5802947194435828e+00 1.9569450328902533e+00 2.6681975256726620e+00 -1 -1 0
17 2 3.1395562497637046e+00 4.5026781720581956e+00 4.0286935743176997e+00 -1 -1 0
65 2 4.3549463096911195e-01 4.5247746904218369e+00 1.3230008433518596e+00 0 -1 0
75 3 3.2420616561233423e-01 1.7098479249625986e+00 4.2087771748761265e+00 0 -1 0
36 2 4.3122101660949745e+00 2.0644122694113265e+00 5.3886002332028919e+00 -1 -1 0
10 2 1.7776503546164220e+00 1.0936755830215974e+00 6.8618567092274221e-02 -1 0 0
341 1 5.3423455559160633e+00 1.7553814091924271e+00 6.4104654155575189e-02 -1 0 1
12 2 4.4135527429341437e+00 2.0459670328939819e+00 5.5522983743259147e-03 -1 -1 0
35 2 2.9871331487269721e+00 3.6874127329467172e+00 6.6750160882061396e+00 -1 -1 0
41 2 2.9405548841123696e+00 4.5924096479603271e+00 9.4727439185739826e+00 -1 -1 0
48 2 1.7280093221972046e+00 2.0294450248687079e+00 8.1762671762964612e+00 -1 -1 0
89 2 4.7430634752168210e-01 4.5427908667268291e+00 6.6923962197529177e+00 0 -1 0
52 3 4.3373376695285994e+00 4.0504272459519974e+00 1.0718263704394255e+01 -1 -1 0
40 3 1.5875251378303719e+00 4.0032651488179942e+00 8.0483792158005407e+00 -1 -1 0
27 3 3.0331214419164954e+00 1.6254843536586556e+00 6.6670027767613078e+00 -1 -1 0
107 2 1.0844684974974260e-01 3.7079655906575897e+00 9.3249292641904233e+00 0 -1 0
99 3 1.9128011051563029e-01 1.7580381486328844e+00 9.4246166125072026e+00 0 -1 0
60 2 4.4385579054003390e+00 2.1113340970672065e+00 1.0932399358248668e+01 -1 -1 0
58 2 1.4028223455655202e+00 1.2898750681971169e+00 1.0882405211738636e+01 -1 0 0
46 2 4.4321659146994881e+00 1.2921083933072179e+00 8.0277950057332408e+00 -1 0 0
113 2 2.5733961429433433e-01 4.5707712436862318e+00 1.1985603242407491e+01 0 -1 0
51 3 2.8644641227704546e+00 1.5430140662756500e+00 1.1953543284119512e+01 -1 -1 0
442 1 1.8787797520233100e+00 3.9197692268383877e+00 1.1710027319078609e+01 0 -1 0
59 2 2.8477484308227345e+00 3.5976415785850056e+00 1.1864792528576718e+01 -1 -1 0
256 1 2.0941869215788209e+00 1.2826754026469180e+00 1.4368762766488015e+01 0 0 0
258 2 1.7990221579646837e+00 1.8211862455085470e+00 1.3585931234352850e+01 0 0 0
457 1 3.2336987254816401e+00 3.1297344851656943e+00 1.4713354651692519e+01 2 -2 0
459 2 3.2275023134050111e+00 3.8388702041594014e+00 1.5379944402472210e+01 2 -2 0
271 1 4.4490418215553102e+00 6.2760109506813533e-01 1.4209536561198991e+01 -1 0 0
222 2 4.4461342137614164e+00 1.5110149428776085e+00 1.3699779681218327e+01 -2 -2 0
290 1 2.6432399203886718e+00 2.6483119264010258e+00 1.7196919257682381e+01 -5 4 0
291 2 2.6191840876035308e+00 1.9957336298321575e+00 1.7915905141228755e+01 -5 4 0
187 1 4.9259237965807152e+00 4.6088345658518275e+00 1.5577691537424293e+01 0 3 0
458 1 2.7777687241511249e+00 4.4789742913232047e+00 1.4803240301226017e+01 2 -2 0
379 1 3.4569396341680986e-01 1.8954301810269820e+00 1.3623557124363863e+01 0 0 0
316 1 2.5755334199416531e+00 1.4693285925722266e-01 1.7495664867662956e+01 9 -1 0
289 1 3.5889759078496115e+00 1.8455387627566082e+00 1.8011789315916221e+01 -5 4 0
340 1 5.3777526563729312e+00 1.7099676204847951e+00 1.3485851214851436e+01 -2 -1 0
283 1 2.4559849291622302e+00 2.9001833071443950e+00 1.9211531446903379e+01 5 -3 0
357 2 4.7234705493374811e+00 4.3359200378866651e+00 2.0916119591618759e+01 5 5 0
285 2 2.1977050970057541e+00 3.2956614220967952e+00 2.0118390744021262e+01 5 -3 0
364 1 8.2492140916035572e-01 4.2421043388917639e+00 1.9874530587961452e+01 2 3 0
139 1 1.0970574616845614e+00 1.9950295026982503e+00 2.2522046447261189e+01 2 -6 0
284 1 1.8911410584766122e+00 2.5052437232395355e+00 2.0610342822179334e+01 5 -3 0
141 2 1.2276153435318995e+00 1.4328454754766711e+00 2.1735816885689044e+01 2 -6 0
355 1 3.8647963584787344e+00 3.8770891637966836e+00 2.0794819918075508e+01 5 5 0
487 1 4.3590051856447980e+00 3.0316564660374281e+00 2.3496594980753891e+01 8 5 0
140 1 1.4481859335539755e+00 5.1134971601660217e-01 2.2066237188463727e+01 2 -6 0
360 2 1.2103609799714596e+00 4.3310302695321958e+00 2.2855652137173212e+01 3 -1 0
488 1 2.9339297732350977e+00 3.7323105805968262e+00 2.3374228395906776e+01 8 5 0
238 1 5.3694439632246169e+00 1.1144161217414723e+00 1.9566085306526627e+01 1 1 0
240 2 5.3019023767970550e+00 1.8396441639693708e+00 1.8823613752692772e+01 1 1 0
489 2 3.5575286397646941e+00 3.4048499865223647e+00 2.3996085143044201e+01 8 5 0
359 1 1.0643738804657092e+00 4.7013132222908371e+00 2.3703220730229940e+01 3 -1 0
143 1 2.8815089360661945e+00 2.5418147154386799e+00 2.6925250433028527e+01 9 6 0
390 2 1.3391855739366680e+00 2.0531348528962203e+00 2.5999646673239329e+01 -3 -6 0
348 2 3.3567989528075998e-01 3.4276911204615523e-01 2.8034980252530293e+01 3 9 0
144 2 3.7501637741496570e+00 2.6006579439891957e+00 2.7470235735803719e+01 9 6 0
389 1 6.5421453367353444e-01 2.7743663088020343e+00 2.5793689212925589e+01 -3 -6 0
186 2 3.1835684618285707e+00 2.7556530420774497e+00 3.0312329979766609e+01 4 5 0
142 1 4.4858755725117412e+00 2.2356097068431877e+00 2.6922248708316872e+01 9 6 0
497 1 5.1091510022332471e+00 5.5534153581430790e-01 2.8357133861031244e+01 6 6 0
184 1 3.2956298225467489e+00 2.5027501264268532e+00 2.9395015269377247e+01 4 5 0
388 1 7.7311909285653224e-01 1.3766056333981591e+00 2.6323785521661478e+01 -3 -6 0
158 1 2.4692695247580856e+00 5.3124570905555613e-01 2.5259188285689635e+01 3 7 0
368 1 3.6359941579477226e+00 4.3776179306351510e+00 2.7738453787999109e+01 -2 3 0
496 1 3.9212276022394583e+00 1.1286304065680675e-01 2.9324193369892065e+01 6 6 0
349 1 5.2401721653724458e+00 1.0212876055027920e+00 3.3712899319639938e+01 2 1 0
248 1 1.8040849254114522e+00 1.3081028145662319e+00 3.3842985845717138e+01 1 10 0
124 1 4.1491878469679797e+00 4.5592001544261720e+00 3.4250538479148382e+01 4 15 0
306 2 1.3347663946044679e+00 2.9393720103807790e+00 3.3119498932708233e+01 4 8 0
249 2 1.7700803853883516e+00 4.2477917499403212e-01 3.4303752275901665e+01 1 10 0
305 1 1.8519343963106460e+00 3.5678696122807936e+00 3.3582516975406548e+01 4 8 0
126 2 3.2033000296621523e+00 4.6766454111076126e+00 3.3881997019547697e+01 4 15 0
304 1 4.0174298862252333e-01 2.8572117552368761e+00 3.3394167565431502e+01 4 8 0
247 1 1.3077675607528501e+00 6.2543141119719903e-01 3.5196964173411118e+01 1 10 0
383 1 1.8281446512951080e-01 3.8446526055261270e+00 3.1418337597017711e+01 8 0 0
385 1 3.1680727141127210e+00 1.5579659251277739e-01 3.3705339242272558e+01 4 -4 0
384 2 4.4469003635542270e-01 4.1020380960992275e+00 3.0505059891388314e+01 8 0 0
382 1 1.3673711688165524e+00 4.0963379134457378e+00 3.0413078989142878e+01 8 0 0
185 1 2.4054814455810885e+00 2.2621960032185324e+00 3.0610845399708342e+01 4 5 0
455 1 5.3021359974744904e+00 2.7937467923266088e+00 3.1174561863843795e+01 -4 5 0
404 1 4.8725330714791910e-02 1.5808732212692864e+00 4.2287382803120984e+01 3 10 0
463 1 3.2268622809300491e+00 2.4901856212597826e+00 4.2041194302983051e+01 -1 -1 0
216 2 2.6359541039052599e+00 1.5010538063508883e+00 4.0237078492083988e+01 5 -6 0
162 2 4.7618978980719273e+00 8.6400093681581991e-01 3.6670057956297704e+01 1 3 0
214 1 2.7432801117021666e+00 5.7637900120665420e-01 3.9897472516184031e+01 5 -6 0
215 1 2.1730677431711944e+00 2.0864547837473455e+00 3.9563132951330225e+01 5 -6 0
147 2 2.4021945747982958e+00 2.5108449102144506e+00 3.7298005822139331e+01 6 0 0
465 2 3.6611015738140220e+00 3.3429203330012838e+00 4.2334057730386633e+01 -1 -1 0
145 1 3.2744056504229033e+00 2.0347904437839444e+00 3.7060420997404172e+01 6 0 0
146 1 1.8719584007114043e+00 1.8139211153471091e+00 3.7732130397910481e+01 6 0 0
203 1 5.8402402588043778e-01 3.9886130503387474e+00 4.0911001509534664e+01 5 1 0
233 1 1.6751018537669258e+00 4.3114308295097965e+00 3.7671145284379875e+01 4 4 0
160 1 4.1909999901860369e+00 8.9569590580074632e-02 3.6490243832396970e+01 1 3 0
478 1 3.3026043798849036e-01 3.1543241538375710e+00 4.6508170053308717e+01 2 -3 0
501 2 3.6461543881923220e-01 3.9860171463468088e+00 4.7149105627351837e+01 0 -1 0
480 2 2.8004927029749100e+00 4.0512401582394606e+00 4.7107458355755092e+01 2 -3 0
4 3 4.2297234897633968e+00 4.1112017836984940e+00 4.8592712854346900e+01 -1 -1 -1
320 1 3.9522035313366075e+00 2.1025950711359980e+00 4.5769686392848065e+01 2 1 0
137 1 1.6539174017943457e+00 1.5432730656568996e+00 4.5386283983060565e+01 0 -2 0
134 1 1.6957405925842561e+00 3.9916268144632627e+00 4.7274769817218356e+01 2 -3 0
273 2 3.5514403678833553e+00 1.3887963917786541e+00 4.5220079866694682e+01 2 2 0
479 1 2.8202509664485489e+00 4.4962240555290567e+00 4.6285194863446250e+01 2 -3 0
445 1 4.4319233683180821e+00 3.1483617366327357e+00 4.2940953632273249e+01 0 -1 0
401 1 3.5325053129225279e+00 2.4357091654916577e-01 4.3432781450700730e+01 -5 1 0
136 1 2.5737008351860635e-01 1.7231999344614222e+00 4.4584028307067356e+01 0 -2 0
138 2 7.1483451145656385e-01 1.7732326498832998e+00 4.5526887769530639e+01 0 -2 0
217 1 3.3463843284125616e+00 7.1934100047642136e-01 4.5872161036600303e+01 2 2 0
466 1 2.9678147384789075e+00 4.1789166324404938e+00 4.3808689111096996e+01 2 4 0
374 1 4.1613273348395396e-01 5.1908171643761658e-02 4.6365950370981714e+01 0 0 0
403 1 2.7408208508441512e-01 1.8076099300682974e-01 4.2944511664159876e+01 3 10 0
61 3 2.0002802014837118e-01 6.5614180111376852e+00 1.3595042889263929e+00 0 -1 0
19 2 3.2183616046377224e+00 8.5405220852791750e+00 4.1657153571384766e+00 -1 -1 0
13 3 3.1056103959885033e+00 6.4713057289105809e+00 3.9709389812835436e+00 -1 -1 0
20 2 4.3256050027167765e+00 6.8780742337330611e+00 2.7084230350156289e+00 -1 -1 0
9 2 3.0251514072410823e+00 9.2493034891987858e+00 1.4891384471715448e+00 -1 -1 0
32 2 1.7841611860573272e+00 6.9673894240870524e+00 5.4969669394057643e+00 -1 -1 0
30 2 4.4521180274067413e+00 6.0646063104812660e+00 5.3783535278689216e+00 -1 -1 0
26 3 1.8815027974334120e+00 8.8985768708070978e+00 5.3786499252512243e+00 -1 -1 0
67 2 1.7917471534244334e-01 8.4662637854595975e+00 1.2147979367026371e+00 0 -1 0
81 2 4.3737126331143811e-01 9.2281428514222519e+00 4.1303640566834687e+00 0 -1 0
224 1 2.5811072214556892e+00 6.5521640627710687e+00 9.0438383466565880e-02 -1 -1 1
14 3 4.5011398448664455e+00 8.8594882679748910e+00 2.6475250228477769e+00 -1 -1 0
18 2 1.5712089527409845e+00 6.1619578218966256e+00 2.8482255714637184e+00 -1 -1 0
2 3 1.8001486837775047e+00 9.0474325129725770e+00 7.5933309907453936e-02 -1 -1 0
8 2 1.7454639002867407e+00 7.0207624852201969e+00 1.3111380520742788e-01 -1 -1 0
33 2 3.1272491619184297e+00 9.4569325799552928e+00 6.6830371375572524e+00 -1 -1 0
43 2 3.0357093000876465e+00 8.5450673117689533e+00 9.3303066070238625e+00 -1 -1 0
85 3 4.4016483169052728e-01 6.6079206619202289e+00 6.7981038708091850e+00 0 -1 0
56 2 1.6875731591419565e+00 6.9541156933245452e+00 1.0744190760521423e+01 -1 -1 0
37 3 3.0009411901983363e+00 6.5407065721613904e+00 9.4100808619766756e+00 -1 -1 0
91 2 4.4377415100836448e-01 8.6284044538067626e+00 6.6761773081269702e+00 0 -1 0
105 2 3.8824868234262894e-01 9.4743190689243146e+00 9.3747734862442087e+00 0 -1 0
50 3 1.5748082007065141e+00 8.8698110045457401e+00 1.0743322938883418e+01 -1 -1 0
38 3 4.4298566715452257e+00 9.0973376315288288e+00 8.1217124298892678e+00 -1 -1 0
54 2 4.2378364317180175e+00 6.1044452503961386e+00 1.0829542925409918e+01 -1 -1 0
42 2 1.5924463511772968e+00 6.1721658862242981e+00 8.1225821980854143e+00 -1 -1 0
44 2 4.4485452827785368e+00 6.8991746380970485e+00 8.1715750071570863e+00 -1 -1 0
109 3 2.6121304975566056e-01 6.4033740561030061e+00 1.1999608488027855e+01 0 -1 0
57 2 2.8751430710298211e+00 9.4424899261246864e+00 1.1973613329582573e+01 -1 -1 0
115 2 2.6578844710857269e-01 8.5372610661673711e+00 1.2073991182293048e+01 0 -1 0
263 1 4.8034522709083998e+00 9.0764709281462732e+00 1.1978993704324731e+01 0 -1 0
443 1 1.7453195907812884e+00 6.7293872345076284e+00 1.4265131495131440e+01 0 -1 0
363 2 4.3455994159573059e+00 6.7686296680500435e+00 1.3395773589981989e+01 -1 -1 0
308 1 1.5055501154266477e+00 8.1137674952654031e+00 1.6316978771153330e+01 1 5 0
361 1 4.4956317029741291e+00 7.5069431961663975e+00 1.4023922714409601e+01 -1 -1 0
318 2 2.6263726505724230e+00 8.9576693922923223e+00 1.7152090089013022e+01 9 -2 0
309 2 6.6539442568311491e-01 7.6877213233940838e+00 1.5854433290535303e+01 1 5 0
307 1 2.9765027154055451e-01 7.0712617761173044e+00 1.6555307838349975e+01 1 5 0
362 1 3.0593856875542786e+00 6.6593804018978222e+00 1.3352463260135696e+01 -1 -1 0
412 1 4.2306605535817843e+00 9.0354301914655117e+00 1.6062725585628549e+01 -2 2 0
317 1 2.8476173845292378e+00 8.5594847947164272e+00 1.7982684933896707e+01 9 -2 0
444 2 1.9715716645710619e+00 6.4241328836941074e+00 1.3393387179854994e+01 0 -1 0
414 2 4.8048291810674497e+00 8.9168412719235892e+00 1.5282583257312924e+01 -2 2 0
127 1 1.9609301299174045e+00 8.8500243123477969e+00 2.3866670136700218e+01 5 11 0
430 1 5.1708903435444817e+00 5.9971522246259106e+00 2.3519422072134599e+01 0 -2 0
432 2 5.2465477954242594e+00 6.2844081341220752e+00 2.2552898081635071e+01 0 -2 0
288 2 3.7667335878442771e+00 7.7788327837726277e+00 1.9217997246931144e+01 2 -2 0
286 1 3.0806469771982896e+00 7.2737575883838410e+00 1.9903977838109739e+01 2 -2 0
461 1 4.4501023050064799e+00 8.9884442006756693e+00 2.0377791441902179e+01 7 0 0
250 1 2.1644440683681108e+00 7.5821892583838775e+00 2.1846560538913543e+01 -4 8 0
287 1 4.3833161517396473e+00 7.1753656948623954e+00 1.8781367856102388e+01 2 -2 0
251 1 1.3318050249128170e+00 6.6370466757201045e+00 2.0662682928389788e+01 -4 8 0
252 2 2.1767724135738660e+00 6.9300976717093024e+00 2.1058304984888665e+01 -4 8 0
128 1 5.1882036452318847e-01 8.7280659214982688e+00 2.3343667718308826e+01 5 11 0
129 2 1.4458824454229886e+00 8.7914762974153806e+00 2.2966292104607483e+01 5 11 0
462 2 5.0736670545236695e+00 9.7108741619542638e+00 2.0685733210063052e+01 7 0 0
453 2 4.8789925645940162e+00 8.9131523991101673e+00 2.3635686977988993e+01 4 -5 0
451 1 4.8509582132030635e+00 9.4663890450523116e+00 2.2896924036857516e+01 4 -5 0
452 1 4.7061236143260254e+00 7.9878748817816794e+00 2.3314995483061974e+01 4 -5 0
356 1 4.6339286246749181e+00 5.2377867828969373e+00 2.1432378049543189e+01 5 5 0
366 2 3.6592665854168066e-01 5.0938585506382301e+00 2.0097958505987350e+01 2 3 0
358 1 1.2340604349850721e+00 4.9976901383638337e+00 2.2128088091008113e+01 3 -1 0
207 2 1.8407301791496400e+00 7.3546860599293193e+00 2.6969193257896812e+01 -3 -7 0
157 1 3.6567070190635396e+00 9.4118159298490891e+00 2.4676881299524986e+01 3 6 0
156 2 4.6913793054312358e-01 6.0342054225043942e+00 2.5165647665214557e+01 -2 2 0
369 2 3.4582857217458685e+00 5.3069461182299031e+00 2.8085535561117005e+01 -2 3 0
154 1 1.1042594401284944e-01 6.8084642339495121e+00 2.4717292161069462e+01 -2 2 0
206 1 1.1198549147419250e+00 7.6535946123632055e+00 2.7519082632123919e+01 -3 -7 0
498 2 4.6807071568533631e+00 9.4999096857085004e+00 2.8854030714816744e+01 6 5 0
205 1 2.0928517231502730e+00 8.0458990682192724e+00 2.6342154514525607e+01 -3 -7 0
159 2 2.7393843184965703e+00 9.3413464284135390e+00 2.5121998626433026e+01 3 6 0
367 1 2.5501289017928399e+00 5.6022447593680855e+00 2.7687771613051108e+01 -2 3 0
155 1 7.9752064146372081e-01 6.4184479227078590e+00 2.5974091501145143e+01 -2 2 0
242 1 4.4404198095954373e+00 6.0727445898834045e+00 2.5892005115570399e+01 -4 -5 0
435 2 2.0933190788604170e+00 9.7153139112037241e+00 3.0031949573450170e+01 3 -4 0
227 1 4.8760508472281039e+00 5.7069719083915400e+00 2.8744275024806509e+01 4 1 0
243 2 5.2752519387451695e+00 6.0908188230462841e+00 2.5417457867773891e+01 -4 -5 0
339 2 4.1323807746281797e-02 6.6399737841847486e+00 2.9404281849757979e+01 -1 -1 0
434 1 1.4965696822744645e+00 9.5647516343624552e+00 2.9294533716623999e+01 3 -4 0
387 2 4.0987408434535464e+00 9.6819518539617881e+00 3.3506115940185047e+01 4 -5 0
269 1 1.9327900167053653e+00 6.7608738205504260e+00 3.0538758692033142e+01 0 1 0
270 2 2.3832180573885449e+00 7.0374005233092083e+00 3.1388951120721238e+01 0 1 0
343 1 5.0836761020887842e+00 5.8148353495544329e+00 3.0948255582883537e+01 0 -7 0
268 1 3.3389542137100334e+00 6.7270013356363281e+00 3.1489760160341945e+01 0 1 0
386 1 4.2317170909638451e+00 9.3220906120946019e+00 3.2601935867647917e+01 4 -5 0
179 1 1.1575235412041534e+00 6.1594846959082528e+00 3.2618028002071405e+01 6 4 0
345 2 4.8967774002015085e+00 6.4914677397283516e+00 3.1535465986032705e+01 0 -7 0
331 1 4.2339870758643977e-01 9.2789727996910312e+00 3.3409986979620378e+01 -3 1 0
125 1 3.2242532662767651e+00 5.4558279522172395e+00 3.3297797888645881e+01 4 15 0
433 1 2.1271943652593928e+00 8.8632003022572530e+00 3.0492333722632658e+01 3 -4 0
175 1 3.4239413917638304e+00 7.2829368640123047e+00 3.6357353717190328e+01 0 6 0
336 2 4.7429849698344873e+00 7.5194285987754190e+00 3.5041144391391775e+01 3 6 0
335 1 4.5864915918019280e+00 8.1356480093594215e+00 3.4309300714250554e+01 3 6 0
180 2 4.3376523514767457e-01 5.7898231442156467e+00 3.3138972891090773e+01 6 4 0
334 1 4.9414142559948662e+00 6.7919778312408283e+00 3.4484877148819244e+01 3 6 0
301 1 4.1556259125475519e+00 6.4526015434561481e+00 3.9735393737930451e+01 0 -2 0
234 2 1.4059131424058715e+00 5.2330013914322766e+00 3.7899159394867077e+01 4 4 0
303 2 4.8513805002920156e+00 6.4781775529973373e+00 3.9036179189267941e+01 0 -2 0
322 1 1.7258581045763186e+00 7.0556695540660117e+00 4.1427912054755055e+01 8 3 0
324 2 2.1287889893682737e+00 7.9863509183547725e+00 4.1536186079813419e+01 8 3 0
302 1 4.2558417780899775e+00 6.7724122030093223e+00 3.8240384307609368e+01 0 -2 0
328 1 4.1804282939148409e+00 4.9649178408395294e+00 4.1797242012472026e+01 -1 -3 0
330 2 4.4327228239206207e+00 5.9114846087808903e+00 4.1665108699843223e+01 -1 -3 0
177 2 2.9974756170711818e+00 7.2807964287784213e+00 3.7244395761711694e+01 0 6 0
323 1 1.9920406899461063e+00 8.3433118207975951e+00 4.0633695150148732e+01 8 3 0
176 1 2.4031162184093207e+00 6.5105504822967912e+00 3.7400149455573086e+01 0 6 0
408 2 6.5529647130013124e-01 5.8984879503687546e+00 4.0723595073261755e+01 0 0 0
407 1 1.0572726394382914e+00 5.5619771358058756e+00 3.9863297172372036e+01 0 0 0
353 1 9.1842181217816932e-01 8.8990022853427213e+00 3.8857956861716296e+01 5 2 0
232 1 5.9288630929475150e-01 5.4420496398595777e+00 3.7435415436339895e+01 4 4 0
352 1 2.3177034566932724e+00 8.5075302981856940e+00 3.8232329508900754e+01 5 2 0
354 2 1.8439733358829176e+00 8.9798619063735359e+00 3.9009109615746937e+01 5 2 0
329 1 3.6853032346568502e+00 6.4060725583996128e+00 4.2068227844692458e+01 -1 -3 0
400 1 3.3322520208500332e+00 8.8751665888003561e+00 4.2380645112946475e+01 -5 0 0
483 2 3.8132611420401377e+00 7.1822097157686082e+00 4.5115831996381615e+01 1 1 0
313 1 4.6416802906032721e+00 8.8390291934958061e+00 4.7315609037734276e+01 -2 -5 0
482 1 3.7446649543367139e+00 7.8310636564495057e+00 4.4367891565475901e+01 1 1 0
447 2 3.0369615944222974e+00 8.6850715406023031e+00 4.7264584862333898e+01 0 -1 0
375 2 2.2421403053866226e-01 9.2560516188061683e+00 4.7186732039409122e+01 0 -1 0
481 1 3.1995510423178701e+00 6.3853049120408567e+00 4.4768053846583044e+01 1 1 0
446 1 3.1948864400033208e+00 8.0324270712214680e+00 4.6614264396058246e+01 0 -1 0
467 1 1.6438937467907906e+00 5.0693189826881007e+00 4.4060437816233950e+01 2 4 0
402 2 3.8211385109544991e+00 9.1056556684013845e+00 4.3170821116501230e+01 -5 0 0
468 2 2.6098752146934565e+00 4.9003353710483184e+00 4.4343307325525672e+01 2 4 0
485 1 5.3244696873740009e+00 6.3522691390472383e+00 4.5003212659732434e+01 -2 0 0
6 2 4.3102100553556815e+00 6.0178780170961064e+00 4.8610815410562111e+01 -1 -1 -1
5 2 5.7713350055284742e+00 4.3729462351009341e+00 1.2851451400045759e+00 -1 -1 0
63 3 8.3984940199262113e+00 1.5114302842086023e+00 1.4762056966649104e+00 -1 -1 0
71 2 8.3625433091407508e+00 3.5950703027705373e+00 1.2772843652307804e+00 -1 -1 0
23 2 5.7679124311618510e+00 3.6727599827631576e+00 4.0585468604805266e+00 -1 -1 0
77 2 8.5215086972164347e+00 4.4443307787611985e+00 4.0938179758036064e+00 -1 -1 0
72 2 9.8358547129646574e+00 2.0269216101236065e+00 2.0875530774418935e-01 -1 -1 0
76 3 7.2133069853543468e+00 4.0663985712677446e+00 2.6754317126265774e+00 -1 -1 0
82 2 9.7310353674711756e+00 1.1584894385796090e+00 2.8235357727283068e+00 -1 0 0
84 2 7.2094005588999668e+00 2.0601746291592806e+00 2.8634734703205620e+00 -1 -1 0
15 3 5.6842144631189004e+00 1.7369432552225526e+00 3.9892186828559923e+00 -1 -1 0
88 3 9.7343774251572999e+00 4.1867228773990943e+00 5.5492597632390153e+00 -1 -1 0
94 2 6.7689939901664431e+00 1.2646453378861293e+00 5.5995891225930006e+00 -1 0 0
96 2 9.6840406145349416e+00 2.0877418898254985e+00 5.4424035722484954e+00 -1 -1 0
373 1 1.0678416306320839e+01 1.5410067199438675e+00 2.3193088749755617e-01 -1 0 1
70 2 6.8660629770407242e+00 9.7335208215063718e-01 2.4584708154444609e-01 -1 0 0
101 2 8.3791001180943301e+00 4.6487322439781709e+00 9.3904385203723262e+00 -1 -1 0
120 2 9.7521052474428540e+00 2.2330009346041972e+00 1.0847949450464997e+01 -1 -1 0
39 3 5.6877186791823515e+00 1.7659059284983620e+00 9.3840764472569731e+00 -1 -1 0
108 2 7.2318512176697851e+00 2.1784095748099919e+00 8.2719788442081992e+00 -1 -1 0
29 2 5.6497205073995751e+00 4.4822708713847073e+00 6.7600283650143878e+00 -1 -1 0
100 3 7.1285566874913942e+00 4.1692357985634683e+00 8.1121710497656458e+00 -1 -1 0
47 2 5.6295288153582517e+00 3.7716108740722669e+00 9.4012843876541190e+00 -1 -1 0
87 3 8.2864949985120013e+00 1.7419260808687307e+00 6.6977427489718062e+00 -1 -1 0
95 2 8.2784581865807461e+00 3.7755885898295234e+00 6.6525343735270397e+00 -1 -1 0
106 2 9.7437649224102465e+00 1.1884046506348738e+00 8.0075866140017080e+00 -1 0 0
118 2 6.9278150289062408e+00 1.4149176490819926e+00 1.0998787112307941e+01 -1 0 0
112 3 9.7065980700398828e+00 4.1727758302143050e+00 1.0803996817605064e+01 -1 -1 0
119 2 8.2311927224260035e+00 3.7099541867656787e+00 1.2107446111836012e+01 -1 -1 0
53 2 5.7600427906412603e+00 4.6716627911826931e+00 1.1919636102309504e+01 -1 -1 0
319 1 7.4280975631980120e+00 4.2681630073565886e+00 1.2090160257173791e+01 -1 -1 0
477 2 7.1078188622363951e+00 2.3574295942322925e+00 1.6568016369964969e+01 -2 -1 0
174 2 9.7008660631244865e+00 4.4986664864938994e+00 1.5329980288183762e+01 -6 -1 0
449 1 9.6217889570320168e+00 6.3378349028372694e-01 1.5352612813810969e+01 -6 0 0
475 1 6.4852078992764834e+00 2.0459313505974794e+00 1.7249906527152138e+01 -2 -1 0
476 1 6.5426429017987537e+00 3.0361960894875621e+00 1.6115072581894609e+01 -2 -1 0
172 1 8.7544959148556156e+00 4.2332097744831163e+00 1.5278224382147965e+01 -6 -1 0
221 1 7.3195196119892643e+00 1.6751049824337014e+00 1.4734873714580182e+01 -2 -2 0
197 1 8.7346659001743561e+00 2.5696687409631407e+00 1.7311346699735164e+01 1 4 0
381 2 9.9352227025465165e+00 1.9762258569115314e+00 1.3734866563523434e+01 -1 0 0
257 1 9.9876353949212078e+00 2.9622211567448673e+00 1.3901277951557221e+01 -1 0 0
321 2 7.1350897198138119e+00 1.7740799227652619e+00 1.3746081148210514e+01 -1 -1 0
198 2 9.5504116088848434e+00 2.5045975943208498e+00 1.7839472817434061e+01 1 4 0
189 2 5.7629421079204892e+00 4.8016537898027432e+00 1.6101839831947679e+01 0 3 0
196 1 9.7815705048283910e+00 1.5456357107696672e+00 1.7544464649898774e+01 1 4 0
450 2 9.4806718792088542e+00 6.2542840686218848e-02 1.6155436256669685e+01 -6 0 0
111 3 8.2377628166891181e+00 1.7340457919415626e+00 1.2267614761213803e+01 -1 -1 0
428 1 1.0229598646036061e+01 1.5980826336640757e+00 2.0772075752883957e+01 -2 5 0
278 1 8.8676078780982568e+00 3.3155902137389401e+00 2.1344300989498290e+01 8 8 0
219 2 6.0484244075855411e+00 2.5906687157325328e+00 2.2868461859128782e+01 -2 1 0
218 1 5.6965636477171957e+00 3.2243271626194874e+00 2.2067432644725908e+01 -2 1 0
279 2 8.8254556208222326e+00 4.1261127190815339e+00 2.1886842638541772e+01 8 8 0
429 2 9.2469273532349092e+00 1.7401220547237972e+00 2.0464962456675927e+01 -2 5 0
277 1 9.4780058590239058e+00 4.0553442601124505e+00 2.2561836998164104e+01 8 8 0
230 1 6.7162638544703981e+00 3.1532989009637107e+00 2.4173067836149446e+01 -5 3 0
193 1 8.3613359481506073e+00 2.6686066396001190e-01 2.0784227863301766e+01 -3 3 0
427 1 9.3583225936788565e+00 2.1419074830261682e+00 1.9554402404830590e+01 -2 5 0
272 1 6.0726485791112959e+00 1.7540257673213970e+00 2.2416645516762898e+01 -2 1 0
239 1 5.4583644999341656e+00 2.7552713718299531e+00 1.9175991921253875e+01 1 1 0
365 1 1.0350968434358618e+01 4.6491267914869931e+00 2.0577916330947954e+01 1 3 0
503 1 6.3790724720106331e+00 2.0918954412410340e+00 2.6081700070831559e+01 -5 3 0
493 1 1.0170721074827261e+01 3.1350432752574546e+00 2.7793715469105290e+01 -2 3 0
439 1 9.0086234922746460e+00 3.5230397962113016e+00 2.5216834340563896e+01 -3 6 0
440 1 1.0179828752737139e+01 4.6415100444522110e+00 2.4888382601887695e+01 -3 6 0
441 2 9.9210931621574048e+00 3.6853557048873933e+00 2.5115478126888974e+01 -3 6 0
494 1 1.0354497028269913e+01 3.2972502175604097e+00 2.9390617557095194e+01 -2 3 0
229 1 6.6212069780724967e+00 4.3435379212337430e+00 2.5356077919915396e+01 -5 3 0
264 2 5.7963576389247766e+00 1.3810597522803165e+00 2.6367669306380435e+01 -5 3 0
148 1 8.5646790489951297e+00 2.0864730563960761e+00 2.9439476050244924e+01 2 2 0
347 1 1.0571066589273626e+01 9.8751341238947266e-01 2.8571478729092938e+01 2 9 0
495 2 9.8114136136593704e+00 2.8487303806642141e+00 2.8631570856556813e+01 -2 3 0
262 1 5.7244851353800490e+00 7.1316252441400574e-01 2.5718149748638570e+01 -5 3 0
231 2 7.0787058568004211e+00 3.4912203633386047e+00 2.5045428962889901e+01 -5 3 0
150 2 8.2287034405173891e+00 1.4381426637066324e+00 3.0181327021777875e+01 2 2 0
226 1 6.0847638527863124e+00 4.7516018734016567e+00 2.8877601826201243e+01 4 1 0
351 2 6.1131515380202641e+00 1.5907325923593674e+00 3.3758295296436778e+01 2 1 0
255 2 9.2612927041525310e+00 2.2036336160839487e+00 3.2727560272054959e+01 4 4 0
311 1 9.7877280358413188e+00 4.2680438390285529e+00 3.6169062129867307e+01 -1 7 0
153 2 5.8281880349116282e+00 4.0981481194834357e+00 3.4737681536065132e+01 2 8 0
454 1 6.2247789211918834e+00 2.1460587842319301e+00 3.2310436437848452e+01 -4 5 0
350 1 6.7041435871285584e+00 1.0200138021786029e+00 3.4258434867773289e+01 2 1 0
151 1 5.7784324903065203e+00 4.0500021964782569e+00 3.5682165322721886e+01 2 8 0
473 1 9.7748807926862487e+00 2.8735795580286538e-01 3.6059856742974304e+01 -1 9 0
456 2 6.2123170028352837e+00 2.7893283143967649e+00 3.1466852696390369e+01 -4 5 0
332 1 9.9899599984982626e+00 4.0899359491450621e-01 3.2879987201226520e+01 -4 2 0
253 1 8.4569463644024818e+00 2.3466210238136358e+00 3.3265909411704172e+01 4 4 0
123 2 7.8487749338347275e+00 9.7613136543326061e-03 3.5509544739722237e+01 3 3 0
254 1 8.9426165034946656e+00 2.2767510289738326e+00 3.1763214672094517e+01 4 4 0
398 1 7.4037327010979856e+00 4.3417004981361194e+00 3.0849825028443327e+01 3 8 0
152 1 5.8143041204438850e+00 3.1256161942098535e+00 3.4571145035727220e+01 2 8 0
310 1 8.7879778917525062e+00 3.0799698930357948e+00 3.5891321720355435e+01 -1 7 0
424 1 7.3621063733488628e+00 4.5524139318393253e+00 3.3975439163520512e+01 2 0 0
426 2 8.2117550806210478e+00 4.8111666388226446e+00 3.3609511108776900e+01 2 0 0
149 1 7.4425237079087312e+00 1.9322719996118574e+00 3.0580106898805063e+01 2 2 0
474 2 1.0635513222154193e+01 7.2379354126949591e-01 3.6185535127166574e+01 -1 9 0
312 2 9.6290443035034929e+00 3.2897179006321768e+00 3.6318243160027208e+01 -1 7 0
472 1 1.0495032528967949e+01 1.6956775925530565e+00 3.6034874131011286e+01 -1 9 0
422 1 6.4029286237804479e+00 8.2724541040582689e-01 4.0096973009130764e+01 3 1 0
204 2 1.0711969497527317e+01 3.1294836816335176e+00 4.0999870825179883e+01 4 1 0
280 1 8.2471022852142291e+00 2.4333944958996154e+00 3.9026453081440422e+01 4 -1 0
282 2 9.1504315693906975e+00 2.2250649309112740e+00 3.8874703658939858e+01 4 -1 0
409 1 5.8036576645540094e+00 3.4328284641257691e+00 3.7800208003612042e+01 -2 0 0
281 1 9.3470106345216966e+00 2.4682167550823140e+00 3.7893969324431318e+01 4 -1 0
421 1 5.6643495327842093e+00 2.1259889264160603e+00 4.0458609101740990e+01 3 1 0
296 1 9.5716240907713512e+00 4.5758399063716582e-01 3.9286648498055492e+01 1 -8 0
161 1 5.6009003672857274e+00 5.4915801741607062e-01 3.6983606205704170e+01 1 3 0
223 1 9.3985785872776457e+00 3.4497371663097174e+00 4.2111164539200438e+01 4 -7 0
423 2 6.3530028615783367e+00 1.7392964869382808e+00 3.9883902627939555e+01 3 1 0
411 2 6.2967062578313975e+00 4.2583542766601106e+00 3.7554666652743542e+01 -2 0 0
202 1 1.0066703572767153e+01 2.9147612200260751e+00 4.0180586786551451e+01 4 1 0
191 1 7.6356502878322852e+00 4.8653298085805945e+00 4.1676726255088646e+01 1 0 0
405 2 1.0457905631235183e+01 9.2255912176976407e-01 4.2886599158461969e+01 2 10 0
325 1 6.2085852795465994e+00 2.7443892087526289e+00 4.4383764269703640e+01 0 4 0
265 1 5.5110934954268087e+00 3.2405923527625657e+00 4.6581218210625302e+01 -1 -4 0
267 2 8.2234942768228976e+00 3.7717738009562312e+00 4.7081571649506785e+01 -1 -4 0
275 1 7.2092251789603452e+00 7.4274062413088904e-01 4.6051122882989802e+01 -1 3 0
327 2 5.5709068178200809e+00 3.4054608662768957e+00 4.3957126283123351e+01 0 4 0
266 1 7.3081666790872157e+00 3.9462923865554589e+00 4.7543326570751226e+01 -1 -4 0
210 2 7.9353894845377857e+00 1.2481430425696844e+00 4.3046537265993095e+01 6 12 0