LAMMPS data file via write_data, version 5 Jun 2019, timestep = 1020000

546 atoms
3 atom types

0.0000000000000000e+00 1.3959816000000000e+01 xlo xhi
0.0000000000000000e+00 8.9076089999999990e+00 ylo yhi
4.4245400000000146e-01 4.3802945999999991e+01 zlo zhi

Masses

1 1
2 16
3 47.86

Atoms # atomic

74 3 5.5897425658830295e+00 4.3263010231666428e+00 1.2262503294968699e+00 0 -1 0
8 3 9.6372336837720196e-01 1.2751950114462778e+00 5.7043628781092961e+00 0 -1 0
6 2 4.1984991728349774e+00 1.4018270505188708e+00 4.2066277861523851e+00 0 -1 0
5 2 2.2042051227509343e+00 1.3276077728164595e+00 2.5186489898942277e+00 0 -1 0
62 3 5.6759271802188103e+00 1.4076173329644144e+00 5.6636031274011085e+00 0 -1 0
1 3 3.2181742997308156e+00 2.9246952845925409e+00 3.3778512342470277e+00 0 -1 0
56 3 5.7302215995294778e+00 1.4580640608102720e+00 9.3622729589669584e-01 0 -1 0
2 3 8.9675292247136407e-01 1.4094038952019459e+00 1.2112734298862635e+00 0 -1 0
64 2 6.4560013793123190e+00 2.9080428177266588e+00 4.7264594249301295e+00 0 -1 0
10 2 1.9612965407966474e+00 2.9518771242600748e+00 4.8689346946604157e+00 0 -1 0
3 2 4.5810522163017007e+00 2.7606806299603219e+00 1.8588497111303734e+00 0 -1 0
26 3 8.2770257743702635e-01 4.2350387859137415e+00 5.7902809153840842e+00 0 -1 0
80 3 5.6135666508191173e+00 4.4020961338506917e+00 5.5429929708362042e+00 0 -1 0
20 3 9.3710164591111555e-01 4.3618256674423348e+00 9.7323434337777781e-01 0 -1 0
24 2 4.1758879149272774e+00 4.3330251187747173e+00 4.0947226532911278e+00 0 -1 0
23 2 2.2493276619767668e+00 4.2897266196391275e+00 2.3933277796312291e+00 0 -1 0
59 2 6.9096994838398533e+00 1.3440419304707310e+00 2.3799109392023552e+00 0 -1 0
100 2 6.5392140594652020e+00 6.4761783741200674e-03 4.7432776010184128e+00 0 0 0
7 3 3.3323182920577570e+00 2.9708191719229711e+00 7.8819010948245189e+00 0 -1 0
11 2 2.3481156612086140e+00 1.5596106169476709e+00 7.1598049994824988e+00 0 -1 0
12 2 4.0933811450706310e+00 1.4816059959222849e+00 8.9922691919705677e+00 0 -1 0
32 3 1.0446343872078878e+00 4.2787238424065981e+00 1.0476096063004082e+01 0 -1 0
68 3 5.6921427371326647e+00 1.4623120933851446e+00 1.0484747513728800e+01 0 -1 0
65 2 6.9577233171987496e+00 1.4445313126849080e+00 7.1462007597946737e+00 0 -1 0
14 3 8.4442673913870803e-01 1.4204126334008842e+00 1.0526186453161314e+01 0 -1 0
29 2 2.3166951287233131e+00 4.3953407523937660e+00 7.1857054338443866e+00 0 -1 0
9 2 4.6877673767632277e+00 2.8340173843415370e+00 6.5081698630173257e+00 0 -1 0
16 2 1.7812817595837318e+00 2.9154740988282848e+00 9.5862715178562574e+00 0 -1 0
70 2 6.4660858620836645e+00 2.9981315120616605e+00 9.5520098493257919e+00 0 -1 0
43 3 3.1706376249715182e+00 3.7556032840384931e-02 8.2859189509123734e+00 0 0 0
30 2 4.1627738189215409e+00 4.4375243088814944e+00 8.8176418038969064e+00 0 -1 0
15 2 4.4968275963673578e+00 2.9192155061024696e+00 1.1223536452687135e+01 0 -1 0
52 2 1.7605405709032111e+00 2.6120166418849067e-02 9.4655735137940411e+00 0 0 0
45 2 4.5995002926164075e+00 3.3887349583977766e-02 6.5552940046716222e+00 0 0 0
51 2 4.5561251305239487e+00 8.7083071850191374e-03 1.1235800859494232e+01 0 0 0
298 1 1.7369987228538752e+00 3.7769294967309586e+00 1.4443719314312798e+01 0 -1 0
17 2 2.2009526915631468e+00 1.3903308674329875e+00 1.1937731248280752e+01 0 -1 0
35 2 2.1680684603701179e+00 4.2835851543080183e+00 1.1992236291420335e+01 0 -1 0
497 1 5.6295916432944297e+00 3.6218292146821209e+00 1.4312504442931793e+01 0 -1 0
300 2 1.9257635939773732e+00 2.8470922252059285e+00 1.4413363523244362e+01 0 -1 0
18 2 4.2635505915362719e+00 1.4686772664746002e+00 1.3638288538211617e+01 0 -1 0
421 1 3.6407727499249707e+00 2.4020339351232645e+00 1.5632914514415864e+01 -1 2 0
227 1 5.9195868819758619e+00 7.7693641322637630e-01 1.4220196241492314e+01 -1 -3 0
463 1 9.8914516491516191e-01 4.4030667276023217e-01 1.4018866602747922e+01 0 0 0
36 2 4.1616221849532566e+00 4.3602119431401292e+00 1.3569499231788114e+01 0 -1 0
192 2 6.4570731290740948e+00 3.0837511103413191e+00 1.4457387061594833e+01 0 0 0
190 1 6.6721662306424294e+00 3.2450133659240645e+00 1.5386132216506354e+01 0 0 0
13 3 3.4763995331712128e+00 2.8287851713719321e+00 1.2727069732975490e+01 0 -1 0
299 1 1.1102681221617441e+00 2.5292602519100891e+00 1.4082652254136288e+01 0 -1 0
71 2 6.8177957529634670e+00 1.5321661529510564e+00 1.1810092726554680e+01 0 -1 0
89 2 6.7112592537535232e+00 4.3600012207273098e+00 1.2052413456723103e+01 0 -1 0
423 2 3.8424068569190348e+00 2.7277327847560491e+00 1.6538883302085313e+01 -1 2 0
226 1 6.9485401183672284e+00 2.8740602322949593e-01 1.5155368310246207e+01 -1 -3 0
228 2 6.5894842817144959e+00 6.2177168050872922e-02 1.4311633459477008e+01 -1 -3 0
484 1 1.6631937934315419e+00 2.6803969217855910e+00 2.0813052633014266e+01 8 0 0
443 1 5.4590479814131472e+00 3.3448287008136046e-01 2.0713761988862846e+01 5 -3 0
274 1 9.4498298097158728e-01 1.2876196411292478e+00 1.7665093017178833e+01 0 1 0
276 2 9.2741210613552982e-01 2.2630355498844508e+00 1.7831961344907405e+01 0 1 0
485 1 1.1531033727635152e+00 2.8589316715941520e+00 1.9342295481310298e+01 8 0 0
275 1 1.5215136517780572e+00 2.6813648997240489e+00 1.7203963528287474e+01 0 1 0
245 1 4.9454724501753180e+00 2.9881329869168343e+00 2.0186541937230722e+01 -2 1 0
486 2 9.7840135084081548e-01 3.1619706542707156e+00 2.0296727504860041e+01 8 0 0
489 2 5.5971210725701974e+00 8.5075597023420879e-01 1.7703676869682386e+01 4 1 0
246 2 5.6485580655398051e+00 2.3538603601862675e+00 2.0097524723892629e+01 -2 1 0
488 1 6.4492598600293238e+00 1.2164369421459309e+00 1.7438514914458100e+01 4 1 0
487 1 5.4479212541347026e+00 1.4324563818960860e+00 1.8519080238509503e+01 4 1 0
244 1 6.4538927885576403e+00 2.8107520752523945e+00 2.0060529361159272e+01 -2 1 0
422 1 4.5125510437008343e+00 2.0959364526499273e+00 1.6840153053755628e+01 -1 2 0
527 1 3.0115442505727050e+00 1.3433781480556184e+00 2.1366286938135701e+01 0 -2 0
480 2 6.8991598174871678e+00 3.9842712179006008e+00 1.7224694292594364e+01 1 5 0
528 2 2.4843697620616467e+00 1.8269764201297221e+00 2.1987367668853320e+01 0 -2 0
285 2 1.5053949017120574e+00 3.8600418938768279e+00 2.5009563570880584e+01 -2 -2 0
400 1 6.5467578568550140e+00 1.4066517567897321e+00 2.4731634709331122e+01 -5 4 0
526 1 3.1360828887414209e+00 2.3520111246970012e+00 2.2461376211263726e+01 0 -2 0
284 1 6.7378289081813547e-01 3.3929010760006793e+00 2.4806333070008208e+01 -2 -2 0
401 1 6.1813797563250299e+00 1.9121418111293222e+00 2.6221652013408647e+01 -5 4 0
340 1 3.1626261971112548e+00 3.6861370274508110e+00 2.4521781108453414e+01 -1 8 0
329 1 3.0480712163025685e+00 3.4583286371978130e+00 2.6866934021021482e+01 0 -6 0
402 2 6.2445003705255919e+00 2.2280376127949908e+00 2.5246799414377463e+01 -5 4 0
342 2 3.9665005637028736e+00 3.3693309679129735e+00 2.4041814090755057e+01 -1 8 0
341 1 4.6583956361469001e+00 2.9391657148294810e+00 2.4581654749648738e+01 -1 8 0
529 1 2.2475188294639672e+00 5.9442907381740928e-01 2.4291004433686048e+01 0 6 0
440 1 1.4633043840706097e+00 2.1648565794043115e+00 2.9880814599079930e+01 -1 -1 0
538 1 1.2028027161765391e+00 1.5222800547199917e+00 3.1796268485392329e+01 4 8 0
356 1 6.3801735284370844e+00 1.4295881568389579e+00 2.8311783012154741e+01 -3 3 0
257 1 3.7660478454862205e+00 1.3391651338360715e+00 3.2419773369344661e+01 4 -9 0
373 1 5.9417954566036197e+00 1.3177480319917270e+00 3.1755992420611857e+01 3 8 0
328 1 4.1108254175596732e+00 2.7372571910937116e+00 2.7764143806347697e+01 0 -6 0
330 2 3.2650127150509349e+00 3.2146056791658730e+00 2.7817062120137404e+01 0 -6 0
539 1 1.8620098372767622e+00 2.9461319713476337e+00 3.1945408770096460e+01 4 8 0
357 2 5.5039689482276266e+00 1.4730539829365110e+00 2.7782111341472252e+01 -3 3 0
540 2 2.0059433440528598e+00 2.0191155566848553e+00 3.1603330737879141e+01 4 8 0
441 2 1.0020053578479660e+00 2.3339917498140772e+00 2.8953516629677527e+01 -1 -1 0
355 1 5.2913941685749561e+00 5.1379584987290750e-01 2.7683927609450713e+01 -3 3 0
439 1 1.7180125087462710e+00 2.5106561835683965e+00 2.8363236442407214e+01 -1 -1 0
374 1 6.6877877343644183e+00 2.5863287587021540e+00 3.1136982951251682e+01 3 8 0
375 2 6.8402934090022312e+00 1.6146839877727297e+00 3.1470073995082913e+01 3 8 0
258 2 4.5474538880305708e+00 9.6725722535230008e-01 3.2842846402671483e+01 4 -9 0
399 2 1.5509158759626633e+00 5.5907109878613770e-01 3.5222075515661615e+01 -2 -6 0
398 1 9.8818561740997579e-01 9.0903319257415904e-01 3.4533645362252166e+01 -2 -6 0
513 2 5.4663179214490851e+00 2.5089622315933053e+00 3.5018797152844797e+01 -1 10 0
255 2 3.0605955361594046e+00 2.4657701303472184e+00 3.6508727048469893e+01 10 -3 0
393 2 7.3650831447216702e-01 3.6746599685875623e+00 3.6663420403326349e+01 -3 -1 0
256 1 4.1226061029606269e+00 1.5257429733757966e-01 3.3212225540388367e+01 4 -9 0
512 1 6.4495680682642780e+00 2.4702087104036976e+00 3.5105029164655527e+01 -1 10 0
253 1 2.5330266520086102e+00 1.7954643008989382e+00 3.6038555383634431e+01 10 -3 0
511 1 5.2639532692311146e+00 2.0278640272902955e+00 3.4180549819524757e+01 -1 10 0
391 1 1.6865860289869226e+00 3.4829632634250176e+00 3.6520075166238044e+01 -3 -1 0
254 1 3.9652092247808928e+00 2.4672022881662228e+00 3.6113432488309186e+01 10 -3 0
535 1 5.6401646163347179e+00 5.8537495366939407e-01 3.6121777915556528e+01 -2 5 0
331 1 4.6857673028736722e+00 4.2685425961361458e+00 3.4459865331967769e+01 -7 6 0
214 1 3.3757724279956154e+00 2.8653277209314356e+00 3.8116169959759887e+01 1 3 0
397 1 9.1959951979843602e-01 3.7745324965811022e-01 3.6028063229429591e+01 -2 -6 0
508 1 9.7233312051877363e-01 3.8455305443439718e+00 4.1219631792816983e+01 4 -7 0
58 2 6.4593875686353055e+00 2.9088095733281332e+00 4.3485184830859062e+01 0 -1 -1
195 2 1.8119675237940477e-01 9.5873417734518629e-01 4.0563228600235824e+01 1 -2 0
316 1 4.6889229623643897e-01 1.8479523019406552e+00 4.0203899725639829e+01 0 -4 0
215 1 2.6515090002326405e+00 3.5506544162529261e+00 3.9389890788841591e+01 1 3 0
507 2 4.1124775412378440e+00 1.3549712533088056e+00 4.2725255704545290e+01 0 0 0
4 2 1.5772585865665543e+00 2.8774708634950832e+00 4.3450361755007002e+01 0 -1 -1
505 1 4.1494837033177889e+00 1.1769401657232932e+00 4.1725577048516755e+01 0 0 0
229 1 3.5405304138811475e+00 3.6117602191333500e+00 4.2942161614844196e+01 3 4 0
506 1 3.1567740905863486e+00 1.4650792377944921e+00 4.3030454310555825e+01 0 0 0
461 1 3.4020249689127504e+00 1.7657604384478764e+00 3.9849261187694609e+01 0 2 0
510 2 1.0053157925566929e+00 3.6320148214738510e+00 4.0251133368723693e+01 4 -7 0
216 2 3.5570129258907683e+00 3.4054815576895803e+00 3.8949869213812654e+01 1 3 0
435 2 5.9684913549011611e+00 3.7805174841014551e+00 4.0672835384828964e+01 0 0 0
293 1 4.0277596682797636e+00 1.8145936408993887e-01 3.9722693488787478e+01 -4 3 0
433 1 5.7019090129033847e+00 3.7353851245575478e+00 4.1616127488669484e+01 0 0 0
434 1 5.1653712659484619e+00 3.5587332760553507e+00 4.0163388723874149e+01 0 0 0
318 2 3.4656687655442693e+00 8.5370203973389480e-01 4.0227282766316343e+01 -1 0 0
509 1 1.3241008487896561e-01 3.9951275747385875e+00 3.9949842909638690e+01 4 -7 0
231 2 4.0925522292944319e+00 4.4072164961127491e+00 4.2839804238822019e+01 3 4 0
37 3 3.4836532548025692e+00 8.8470175549832764e+00 3.2663621084100738e+00 0 -1 0
28 2 1.8759547592925510e+00 5.8119166680924153e+00 4.8038610083896769e+00 0 -1 0
42 2 4.1991566168565795e+00 7.2671004941175976e+00 4.1979433764176948e+00 0 -1 0
41 2 2.1385914145348295e+00 7.3170932199822847e+00 2.5576017980279331e+00 0 -1 0
38 3 8.3267104899500533e-01 7.3779787688317136e+00 1.1287253529504986e+00 0 -1 0
19 3 3.1755329817294955e+00 5.8865779071036402e+00 3.3669032381830903e+00 0 -1 0
82 2 6.4987999340911857e+00 5.9209429415401713e+00 4.7614048764484265e+00 0 -1 0
21 2 4.4905916159999135e+00 5.7680326853130302e+00 1.6625736824655313e+00 0 -1 0
95 2 6.9201160000044277e+00 7.4098238196201285e+00 2.3912401150626774e+00 0 -1 0
44 3 1.0153264956230121e+00 7.2387035334261745e+00 5.7073769868971507e+00 0 -1 0
46 2 1.8890448904193886e+00 8.7814959565677757e+00 4.9504271602605794e+00 0 -1 0
92 3 5.7224362357878267e+00 7.2381060975782070e+00 9.5130384523259559e-01 0 -1 0
98 3 5.5648226616545999e+00 7.5165450143042660e+00 5.8137646209781702e+00 0 -1 0
39 2 4.5750075842164923e+00 8.7269975948093670e+00 1.8765610541687685e+00 0 -1 0
50 3 1.0361208370116648e+00 7.2729917324859406e+00 1.0416016028336827e+01 0 -1 0
86 3 5.4558856140864007e+00 4.4977604417223302e+00 1.0309156924267105e+01 0 -1 0
25 3 3.3380794417225719e+00 5.9453558637168289e+00 7.7711527493851742e+00 0 -1 0
101 2 6.9373168982269231e+00 7.3479081935695074e+00 7.1819438789928398e+00 0 -1 0
47 2 2.2812697280983367e+00 7.3721345649106649e+00 7.2537049733993868e+00 0 -1 0
88 2 6.4446686948783380e+00 5.9647836125139424e+00 9.4843698105513230e+00 0 -1 0
27 2 4.6362217817747089e+00 5.9290151042574406e+00 6.5268467583202403e+00 0 -1 0
106 2 6.5051082435491319e+00 8.8010696563910003e+00 9.5603883865721500e+00 0 -1 0
48 2 4.1005959634581259e+00 7.3721409064541890e+00 8.9739831549345475e+00 0 -1 0
34 2 1.9207000672147678e+00 5.7119097830159600e+00 9.7503619629293663e+00 0 -1 0
104 3 5.4907543460323431e+00 7.3919769477814690e+00 1.0348503682834284e+01 0 -1 0
83 2 6.8070611841130093e+00 4.4587811308555390e+00 7.1366375481004196e+00 0 -1 0
33 2 4.4933967592516799e+00 5.8444991498702867e+00 1.1244099736556272e+01 0 -1 0
31 3 3.2783738686223662e+00 5.8367541420182798e+00 1.2873359431851627e+01 0 -1 0
496 1 5.8304344048173125e+00 6.5222526122656861e+00 1.4078485880496851e+01 0 -1 0
501 2 3.8021969976980809e+00 7.9843230573346986e+00 1.6603590669343834e+01 4 17 0
53 2 2.2126965667830523e+00 7.4453584263829038e+00 1.1832133875744391e+01 0 -1 0
191 1 6.9055659890071022e+00 6.1311735379135177e+00 1.5061102632020210e+01 0 0 0
465 2 1.7558126111395671e+00 8.8414746265956161e+00 1.4313612049457772e+01 0 -1 0
498 2 6.5906592162083770e+00 5.9552745083197340e+00 1.4188115119335196e+01 0 -1 0
180 2 1.7029089275771701e+00 5.7784796779794432e+00 1.4267235574589272e+01 1 -1 0
107 2 6.8519703181374254e+00 7.2457822624707200e+00 1.1863645923049516e+01 0 -1 0
179 1 7.8088763801643091e-01 5.5228959277821135e+00 1.4027880469948554e+01 1 -1 0
54 2 4.0248150500718545e+00 7.3677923826356126e+00 1.3588773544218880e+01 0 -1 0
500 1 4.0818337402096025e+00 8.0047284427498262e+00 1.5688957459584604e+01 4 17 0
178 1 1.6775601594566889e+00 5.8293639049081811e+00 1.5287547713630554e+01 1 -1 0
49 3 3.4796660308660918e+00 8.9064075600536246e+00 1.2758327819694546e+01 0 -1 0
464 1 1.4179085569544596e+00 7.8746293040681952e+00 1.4123283045975661e+01 0 -1 0
301 1 1.9137124710372249e+00 7.7602050614220843e+00 1.9089963809869147e+01 0 8 0
368 1 4.2321434974545985e-01 8.4478445766179586e+00 1.6941955124250693e+01 3 1 0
369 2 1.3267864873732089e+00 8.4365221620831328e+00 1.7415204196764826e+01 3 1 0
367 1 2.0430888917103820e+00 8.6161395383957213e+00 1.6754336362513669e+01 3 1 0
172 1 4.5634470118352608e+00 5.3827468015744460e+00 2.1664768166077689e+01 -2 10 0
303 2 2.1886497030504528e+00 7.4939965694156401e+00 2.0007832839090682e+01 0 8 0
478 1 6.3114695994007244e+00 4.7529545640593733e+00 1.7343648749867850e+01 1 5 0
264 2 4.5988282887953886e+00 5.4880053784802278e+00 1.7525325677614632e+01 -2 -3 0
302 1 3.0683133017137951e+00 7.9957434475034042e+00 2.0179638868081145e+01 0 8 0
347 1 1.9372125104717168e+00 6.3874485775908356e+00 1.7433487917843483e+01 1 0 0
265 1 1.2702311706406739e+00 7.8940488228184789e+00 2.1310450845602663e+01 3 -3 0
267 2 5.8484205835876113e-01 7.8670386144893634e+00 2.2035896183378259e+01 3 -3 0
348 2 1.6950554152050581e+00 5.6518522277841807e+00 1.6848120330159094e+01 1 0 0
263 1 4.2996914252662579e+00 6.3886608842202008e+00 1.7252938608663442e+01 -2 -3 0
346 1 7.8323770093128153e-01 5.2593729259726647e+00 1.6992365378554382e+01 1 0 0
503 1 4.0449983461908294e+00 5.3133198841167104e+00 1.9225576667916549e+01 -9 -3 0
262 1 3.9826505349045744e+00 4.8020263390829232e+00 1.7108223845487963e+01 -2 -3 0
499 1 4.4691341074279585e+00 8.5253052107941514e+00 1.7112447005780826e+01 4 17 0
323 1 3.5689058987554334e-01 4.6145724176182297e+00 2.0388017754576428e+01 1 7 0
322 1 5.2161216420644163e-01 6.1642064804680468e+00 2.0677804214922865e+01 1 7 0
504 2 3.8452711268030493e+00 4.7616423434579760e+00 2.0052809414764553e+01 -9 -3 0
502 1 2.8777001476084783e+00 4.9831189308368433e+00 2.0214164104154328e+01 -9 -3 0
442 1 4.7507954813349880e+00 8.3730584388010740e+00 2.1730355774784005e+01 5 -4 0
444 2 4.6538020521227246e+00 8.6881737874869795e+00 2.0802312075544073e+01 5 -4 0
174 2 5.0130405212379179e+00 5.4090447990518022e+00 2.2528387694922316e+01 -2 10 0
530 1 1.7256996124461685e+00 8.3261055065906486e+00 2.5012799223249573e+01 0 5 0
492 2 4.5696708685640761e+00 7.8515652557207911e+00 2.3279051297322361e+01 3 2 0
531 2 2.5492991811433718e+00 8.8064039675680661e+00 2.4870563499291762e+01 0 5 0
296 1 8.9830658223569648e-01 6.4375063735027043e+00 2.6832986585373607e+01 3 0 0
490 1 4.5209985414971472e+00 6.9163799159003112e+00 2.3069510531488401e+01 3 2 0
491 1 3.8735107774468185e+00 8.0105052131044641e+00 2.3970323233282134e+01 3 2 0
173 1 4.6497317564071459e+00 4.6805337857343927e+00 2.3062461671867776e+01 -2 10 0
297 2 9.4264503815142231e-01 6.4892447426033293e+00 2.5864538868583686e+01 3 0 0
320 1 3.8348190074191093e+00 8.5563926946227884e+00 2.6111107357660234e+01 -2 5 0
321 2 4.4532658412422164e+00 8.2319182673089237e+00 2.6807693011129491e+01 -2 5 0
409 1 5.9564395495698426e+00 6.4753265397459749e+00 2.7033932773809127e+01 1 2 0
211 1 6.2717287884146620e+00 8.1136742210243398e+00 2.4114697940143486e+01 4 2 0
283 1 1.2049490342722131e+00 4.7886228587731168e+00 2.4919413604452853e+01 -2 -2 0
411 2 6.8989838187075119e+00 6.2108024999712317e+00 2.7038191590385757e+01 1 2 0
319 1 3.9527715302953124e+00 7.6229689898950923e+00 2.7337014073822875e+01 -2 5 0
295 1 3.3434284719230899e-02 6.8162343692423759e+00 2.5613729525726214e+01 3 0 0
388 1 3.9781783106467308e+00 4.9141616064099249e+00 2.8310699282788068e+01 -1 9 0
364 1 5.8645848718839666e+00 7.2745536062344049e+00 3.1382814466476479e+01 3 16 0
365 1 4.5245376125864638e+00 7.9024945085559981e+00 3.0935449929454276e+01 3 16 0
517 1 3.2476781507780239e+00 6.5650408280391375e+00 3.0135883775599726e+01 4 -3 0
390 2 4.2636517700235128e+00 5.8538688966479429e+00 2.8613581635727304e+01 -1 9 0
366 2 5.3633760944223301e+00 7.5992566873655010e+00 3.0616389977237404e+01 3 16 0
389 1 5.2113778989011372e+00 5.7751270501425944e+00 2.8808151007278109e+01 -1 9 0
387 2 1.5596791060396920e+00 4.5483449352708520e+00 3.2393090661137713e+01 4 9 0
519 2 2.6303255121400464e+00 6.7511836388837807e+00 3.0888456790433100e+01 4 -3 0
518 1 2.0714376247826611e+00 7.3365776123263533e+00 3.0475519689844962e+01 4 -3 0
386 1 1.6582578108911175e+00 5.1965331286687357e+00 3.1703290657275300e+01 4 9 0
273 2 6.5507120859040526e+00 6.1777973722400823e+00 3.2652081662779338e+01 -3 -2 0
482 1 2.9952987909132109e+00 7.2900860823685116e+00 3.2873105374711031e+01 3 -4 0
272 1 5.7096876221407724e+00 5.7232587660488496e+00 3.2845812744847009e+01 -3 -2 0
396 2 3.9673355375838421e-01 6.6745817123969902e+00 2.8371265999673799e+01 1 10 0
193 1 6.9646640658353913e+00 8.7621859830132074e+00 2.9799703292421729e+01 -3 -2 0
395 1 2.0291813982682605e-01 6.0619653555395399e+00 2.9062951916109146e+01 1 10 0
468 2 2.7986801269239967e+00 7.9395126386385453e+00 3.7403389856650108e+01 2 -3 0
271 1 6.9771598452028689e+00 6.4983713595524675e+00 3.3466118762738724e+01 -3 -2 0
481 1 2.4550827770460169e+00 7.7780447601221221e+00 3.4291382356859280e+01 3 -4 0
467 1 3.4847264252497929e+00 8.2033000272357874e+00 3.6735926683037562e+01 2 -3 0
277 1 7.4578005358982657e-01 6.7230130954193941e+00 3.5285251172383823e+01 4 5 0
537 2 5.5953644153810655e+00 8.5778187540623705e+00 3.6420476215804740e+01 -2 4 0
430 1 6.8204158208132606e+00 6.9291608854779962e+00 3.5930540973430745e+01 1 2 0
466 1 3.2758510957919960e+00 7.2505385416455930e+00 3.7874904865450475e+01 2 -3 0
279 2 1.3151434458379905e+00 6.0318284238808246e+00 3.5739699107149399e+01 4 5 0
278 1 1.8694303706196451e+00 6.5018530074762628e+00 3.6333691511328148e+01 4 5 0
248 1 1.0371071147684214e+00 8.2482130967412655e+00 3.7662551105130099e+01 2 -3 0
332 1 4.0189086687492175e+00 5.6778323329287845e+00 3.4381110715997636e+01 -7 6 0
483 2 3.2200948867553252e+00 7.5232080432511008e+00 3.3817466711576067e+01 3 -4 0
333 2 4.2116501663211041e+00 4.8949544996721333e+00 3.3774947092594608e+01 -7 6 0
536 1 5.9260557139132493e+00 8.6555293466546175e+00 3.7374911719851859e+01 -2 4 0
385 1 2.2770098060679973e+00 4.5342006416828973e+00 3.3037052608914529e+01 4 9 0
392 1 7.4743320327686646e-01 4.5942573295875970e+00 3.6279504497726364e+01 -3 -1 0
249 2 1.5294361108719337e-01 8.4965322512500485e+00 3.7393407433354994e+01 2 -3 0
306 2 6.5140323235380029e+00 6.7809897326460620e+00 4.0820353866151962e+01 3 0 0
234 2 4.0752137453483863e+00 6.1717646541034190e+00 3.9549002124669975e+01 -6 -2 0
194 1 5.6143580728670370e+00 6.4926251882339781e+00 4.0547163144089467e+01 3 -1 0
412 1 5.9431893768364186e-01 6.7895975268795254e+00 4.0057642719542223e+01 -1 -7 0
416 1 3.2276106672347984e+00 7.0774274321416932e+00 4.3128195976914576e+01 0 -1 0
232 1 3.8632604275225844e+00 5.2166402893579304e+00 3.9370954362769623e+01 -6 -2 0
415 1 4.0858897360506461e+00 8.4161717322224536e+00 4.3034345673770801e+01 0 -1 0
417 2 4.0855240399070931e+00 7.4524036921235943e+00 4.2840079383409680e+01 0 -1 0
22 2 1.6714947559437279e+00 5.8771189106842820e+00 4.3588150473590538e+01 0 -1 -1
304 1 6.4097167492097817e+00 6.5442110455383462e+00 4.1723084913151325e+01 3 0 0
413 1 1.0934846626643557e+00 8.2164970167188578e+00 4.0312207220111276e+01 -1 -7 0
76 2 6.4923215595826820e+00 5.8825165175442029e+00 4.3402147138713701e+01 0 -1 -1
230 1 3.4622425639091485e+00 5.1066263021692064e+00 4.3067053953928557e+01 3 4 0
233 1 3.2847957828123495e+00 6.5751535343947278e+00 3.9978001594512911e+01 -6 -2 0
414 2 1.3975635775416628e+00 7.2911065585462316e+00 4.0180526830637241e+01 -1 -7 0
40 2 1.4908854644272431e+00 8.8634642211364181e+00 4.3678674580555700e+01 0 -1 -1
94 2 6.4734734291210243e+00 8.8455096864000691e+00 4.3398308119022573e+01 0 -1 -1
290 1 6.8181465226872184e+00 8.3005825647694511e+00 3.9819272558970674e+01 -3 2 0
111 2 1.3801447081224277e+01 2.9940281241339277e+00 1.9506508350272225e+00 0 -1 0
110 3 1.0318564745414585e+01 1.3745080427317284e+00 1.1464655522965748e+00 0 -1 0
109 3 1.2546358831876676e+01 2.7975319442922535e+00 3.3904768697940928e+00 0 -1 0
134 3 1.0267773475637537e+01 4.2181653376745469e+00 5.7950816129875999e+00 0 -1 0
57 2 9.2053278819517779e+00 2.9379334258445597e+00 1.9241511047677582e+00 0 -1 0
55 3 8.0413864966481334e+00 2.8928933376970560e+00 3.4164003874277782e+00 0 -1 0
114 2 1.3571876569765326e+01 1.3597939749229035e+00 4.2583109663312122e+00 0 -1 0
113 2 1.1679512059049019e+01 1.3224362982161677e+00 2.4929708913020590e+00 0 -1 0
132 2 1.3402620799669293e+01 4.3455969074623013e+00 4.3305549814258093e+00 0 -1 0
118 2 1.1174928936320500e+01 2.7106849546807870e+00 4.9410901961454581e+00 0 -1 0
60 2 8.6899960881788196e+00 1.4478377949229706e+00 4.3226127965552594e+00 0 -1 0
116 3 1.0155791918379542e+01 1.2708255822719703e+00 5.8172053445780936e+00 0 -1 0
128 3 1.0274527014995773e+01 4.4276601677925713e+00 1.0118742344875740e+00 0 -1 0
131 2 1.1575888582171777e+01 4.3809954556220392e+00 2.4984822195383951e+00 0 -1 0
154 2 1.1146510816567353e+01 2.4170822398925391e-02 4.8405306201711289e+00 0 0 0
78 2 8.8222451501356609e+00 4.3355242099487263e+00 4.3629476368659539e+00 0 -1 0
138 2 1.3444171850168370e+01 4.3626364177301138e+00 9.0663263761496466e+00 0 -1 0
66 2 8.7521841523106580e+00 1.4977556344633485e+00 8.9010575004240309e+00 0 -1 0
61 3 7.7451146772243780e+00 3.1222242682660726e+00 7.9636736870284688e+00 0 -1 0
122 3 1.0204871690663385e+01 1.4531675131469961e+00 1.0462464606588023e+01 0 -1 0
69 2 9.1640640713631267e+00 2.8830719141138474e+00 1.1173462315042567e+01 0 -1 0
115 3 1.2455420996350650e+01 2.8628996569041809e+00 7.9907427555246233e+00 0 -1 0
117 2 1.3880598795529902e+01 2.8686998920986153e+00 6.6118383165789840e+00 0 -1 0
120 2 1.3284711510885311e+01 1.4804311383021660e+00 8.9970967257875056e+00 0 -1 0
119 2 1.1597630039605702e+01 1.3952772258943684e+00 7.2118655081979774e+00 0 -1 0
63 2 9.2158259246478433e+00 2.9077919747557308e+00 6.6283256846594840e+00 0 -1 0
124 2 1.1039632133668434e+01 2.9188180507361645e+00 9.4291086870628966e+00 0 -1 0
97 3 7.9552312586939413e+00 9.7287622823022377e-02 8.1971398794436912e+00 0 0 0
140 3 1.0172967289963163e+01 4.3836349673107584e+00 1.0373644558920422e+01 0 -1 0
176 1 1.2061627623125522e+01 6.8269671646752972e-01 1.6569588197017421e+01 2 7 0
121 3 1.2556899122506831e+01 2.8282826924236413e+00 1.2769075733126533e+01 0 -1 0
544 1 1.0267685637713129e+01 4.2787500595020195e-01 1.4126273935656018e+01 0 0 0
125 2 1.1324409440899101e+01 1.4126908828683815e+00 1.1998088469272767e+01 0 -1 0
543 2 1.1157751654118977e+01 2.7691603250576535e+00 1.4561290785231590e+01 0 -1 0
542 1 1.1287903320057087e+01 2.2139130735561667e+00 1.5385142698908847e+01 0 -1 0
126 2 1.3311209289407396e+01 1.3883316969615795e+00 1.3756604252925294e+01 0 -1 0
67 3 7.9822370187292409e+00 3.0912679493300241e+00 1.2766087075966194e+01 0 -1 0
72 2 8.7473746348425969e+00 1.5115134328203479e+00 1.3616050390376396e+01 0 -1 0
541 1 1.0242946708487043e+01 2.4750130512377675e+00 1.4220596192463645e+01 0 -1 0
361 1 1.3186142566470652e+01 4.1607467119646495e+00 1.5479732734916530e+01 -1 -8 0
144 2 1.3197790035994364e+01 4.3403584023192465e+00 1.3517772092565490e+01 0 -1 0
123 2 1.3923938223381388e+01 2.7089534191946236e+00 1.1412966663315148e+01 0 -1 0
103 3 8.0704096523998388e+00 6.5288208610064347e-02 1.2719157793066206e+01 0 0 0
384 2 8.4026586980160332e+00 8.1951407405890875e-01 1.6442413238384859e+01 -2 1 0
363 2 1.3306448010327344e+01 4.3610804509268721e+00 1.6423011287856461e+01 -1 -8 0
383 1 9.1040850949964973e+00 1.4366687479006857e+00 1.6133626097689628e+01 -2 1 0
90 2 8.9231675684755825e+00 4.4337879822209167e+00 1.3509285738136851e+01 0 -1 0
143 2 1.1329569287781313e+01 4.3575111376771742e+00 1.1813935077133793e+01 0 -1 0
159 2 1.3915672967171284e+01 1.1476825955208270e-02 1.1468752197008248e+01 0 0 0
522 2 1.1218351105546803e+01 1.5956680546127153e-01 1.9462853436096868e+01 -4 3 0
476 1 8.2343054474760162e+00 9.8100325881943273e-01 1.8300028366122831e+01 -3 -7 0
475 1 8.2103559425570936e+00 7.1852642635121533e-01 1.9841266016259606e+01 -3 -7 0
349 1 1.3330653517556719e+01 2.1750969479703484e+00 2.0677566416798332e+01 4 4 0
521 1 1.0310296351723759e+01 5.1649229610990999e-01 1.9349938440063664e+01 -4 3 0
350 1 1.2318871488770732e+01 1.0378287974948044e+00 2.0302225933012437e+01 4 4 0
175 1 1.1386316802999174e+01 1.4301814947839164e+00 1.7674331069973817e+01 2 7 0
351 2 1.2752442549430450e+01 1.4474007500680921e+00 2.1079763880598716e+01 4 4 0
419 1 9.8389633965820078e+00 3.8179902336407823e+00 1.8747303217827454e+01 0 0 0
477 2 8.6611212262191657e+00 1.1867556837727007e+00 1.9103957045082151e+01 -3 -7 0
479 1 7.8200278448707730e+00 4.2583608035402660e+00 1.7464224367781245e+01 1 5 0
177 2 1.1645610008772092e+01 1.5728651166089176e+00 1.6746491598164692e+01 2 7 0
362 1 1.3347737413360186e+01 3.4881126076789002e+00 1.6802760150212560e+01 -1 -8 0
183 2 1.0403797667772633e+01 1.5559650706625849e+00 2.2823778392551826e+01 -1 9 0
268 1 1.3535471821044352e+01 1.9227620466026172e+00 2.2851438656370540e+01 2 -3 0
182 1 9.8725382605211127e+00 8.1301151979762720e-01 2.2459928394878130e+01 -1 9 0
202 1 1.0631956121586002e+01 3.4668649999205199e+00 2.7036109677380740e+01 -5 -6 0
236 1 7.5527573203330025e+00 3.9191791903896163e+00 2.4727753917551190e+01 -4 -5 0
269 1 1.2857308290699855e+01 1.8662129822657310e+00 2.4362209423441350e+01 2 -3 0
201 2 1.1529233933532522e+01 1.6644594935256776e+00 2.5366852283957531e+01 -4 1 0
204 2 1.1359202343485178e+01 4.1375840130550081e+00 2.6865814860176048e+01 -5 -6 0
424 1 9.7806058347023406e+00 3.4105469073025212e+00 2.3011877757925088e+01 -1 -4 0
203 1 1.1542518144599224e+01 3.9222229920105751e+00 2.5939959162937072e+01 -5 -6 0
199 1 1.0977855872589860e+01 1.3763152643493528e+00 2.4588218131358456e+01 -4 1 0
163 1 1.3015776886587739e+01 4.2129506841649524e+00 2.3217749167474139e+01 -1 5 0
292 1 7.8813785565513337e+00 2.8313262983182925e+00 2.7108022457363965e+01 -4 4 0
200 1 1.1171233232898592e+01 1.1820017349861136e+00 2.6145233445508602e+01 -4 1 0
270 2 1.3695806938841132e+01 2.1982500199957484e+00 2.3816730679398209e+01 2 -3 0
426 2 9.8184976284210386e+00 4.3835920296026885e+00 2.3165450013510377e+01 -1 -4 0
181 1 1.1250195426069208e+01 1.5543603651924536e+00 2.2354329880629784e+01 -1 9 0
452 1 1.3414280630339467e+01 3.1935036797696448e+00 2.9442269281912878e+01 0 5 0
224 1 8.9667832287518578e+00 4.2461006460559805e+00 3.2095442844780656e+01 0 0 0
407 1 1.0987463541316098e+01 2.2980567394728615e+00 3.0538119548918043e+01 1 19 0
238 1 1.0704097977840643e+01 2.9521665997160396e+00 3.2519625156292840e+01 -2 -2 0
261 2 8.4323927085755024e+00 2.5874717579561386e+00 2.7884158713926318e+01 -6 7 0
470 1 9.8759270167636650e+00 1.1320065529076948e+00 2.8110305903925823e+01 1 1 0
451 1 1.2249062534407344e+01 3.7790325259293613e+00 2.8366977604306211e+01 0 5 0
377 1 1.3698892870053063e+01 7.3825952297332076e-01 2.9191337192536903e+01 3 7 0
406 1 1.1978487482405782e+01 1.7147216179398679e+00 3.1507506161707020e+01 1 19 0
259 1 8.5706131619006669e+00 3.4752195882878083e+00 2.8337697292423144e+01 -6 7 0
453 2 1.2372652784936527e+01 3.3569630018676953e+00 2.9266468497472751e+01 0 5 0
408 2 1.1060454986109377e+01 1.8023696955586317e+00 3.1336958958907530e+01 1 19 0
376 1 1.2386881303100006e+01 5.7260830825521580e-01 2.8437590605318114e+01 3 7 0
378 2 1.3056235043885811e+01 1.8030935566876481e-02 2.8930114872456947e+01 3 7 0
471 2 1.0665988265851198e+01 6.0824327851347904e-01 2.7888682416908289e+01 1 1 0