LAMMPS data file via write_data, version 5 Jun 2019, timestep = 1000000

528 atoms
3 atom types

0.0000000000000000e+00 1.3959816000000000e+01 xlo xhi
0.0000000000000000e+00 9.3065440000000006e+00 ylo yhi
0.0000000000000000e+00 3.9865699999999997e+01 zlo zhi

Masses

1 1
2 16
3 47.86

Atoms # atomic

31 3 4.5589097207836504e+00 1.0689352410661859e+00 4.3529689651904180e+00 -1 1 0
129 2 2.9827668877781077e+00 2.5262628400188847e+00 4.4620030868284495e+00 0 1 0
132 2 7.4059077068527879e-01 1.9824909487127347e+00 2.9857055346570194e+00 0 1 0
125 2 3.5051288030732590e+00 1.5348781061951663e-01 2.0252290896388631e-01 0 1 0
131 2 3.5686615599169280e+00 2.1008259502968971e-01 3.0146112473712794e+00 0 1 0
36 2 5.3285245839729933e+00 2.0337427338216569e+00 2.9725163506039523e+00 -1 1 0
25 3 4.4579965111448461e+00 1.3279587637231272e+00 1.2781105770434602e+00 -1 1 0
104 3 2.2472936177410872e+00 3.4953442855944985e+00 3.0408828555706076e+00 0 0 0
100 2 1.1848471551349400e+00 4.4773432503096728e+00 1.4588362079778132e+00 0 0 0
8 3 6.7617664990378659e+00 3.5715563381352458e+00 3.2164742794702099e+00 -1 0 0
123 2 3.0028717871975235e+00 2.6679737972096955e+00 1.4877998435954460e+00 0 1 0
2 3 6.8154663309344423e+00 3.5389071406456187e+00 2.9654697324128571e-01 -1 0 0
10 2 5.8325279818244962e+00 4.4592068374122276e+00 4.5797153569057354e+00 -1 0 0
106 2 1.3044524124446859e+00 4.4892491141346991e+00 4.4682485195038764e+00 0 0 0
4 2 5.9212598838525095e+00 4.4459005113833543e+00 1.6322304302343529e+00 -1 0 0
126 2 8.8663651741626948e-01 2.0952350576600036e+00 5.8908647936755973e-02 0 1 0
98 3 1.9592698405410161e+00 3.6653456503127968e+00 1.2056229336170475e-01 0 0 0
48 2 5.3702419982364882e+00 2.0582326493816061e+00 9.1419418089693547e+00 -1 1 0
143 2 3.5897812539887877e+00 2.2212268895753481e-01 9.0205693827962445e+00 0 1 0
138 2 7.1527608545723631e-01 2.3778483180044661e+00 5.9859592875818883e+00 0 1 0
37 3 4.3934472942280660e+00 1.4029655942928705e+00 7.4420281773468195e+00 -1 1 0
116 3 1.8998510469079828e+00 3.6843185193368981e+00 8.9869096338124805e+00 0 0 0
135 2 3.0567288327407094e+00 2.7694363246108340e+00 7.6002819428034085e+00 0 1 0
144 2 7.1189086713218941e-01 2.1117709376873544e+00 8.8598922161939075e+00 0 1 0
42 2 5.3505536138371799e+00 2.1131323794052883e+00 6.0810699704125959e+00 -1 1 0
137 2 3.5368874540583870e+00 4.0255292681281973e-01 5.9568915567091505e+00 0 1 0
110 3 2.2420314246838644e+00 3.5202152888436271e+00 5.9244389270737452e+00 0 0 0
112 2 1.1951891689284997e+00 4.5573836690150245e+00 7.5946232993989842e+00 0 0 0
16 2 5.9030500914262323e+00 4.5906032816051257e+00 7.5652826957553572e+00 -1 0 0
14 3 6.8430204670101311e+00 3.4369459869295382e+00 6.1462955046743222e+00 -1 0 0
20 3 6.9220455359841342e+00 3.6184268590454178e+00 9.2220337395142362e+00 -1 0 0
153 2 1.2267669430162780e+00 3.9060619225827264e-01 1.3826639873643899e+01 3 6 0
141 2 3.0950852741355623e+00 2.6786587040863545e+00 1.0560504373553982e+01 0 1 0
253 1 1.7268963598532432e+00 2.4724170708924675e+00 1.1366474891813120e+01 -3 -1 0
43 3 4.3867838322643395e+00 1.1241077967444362e+00 1.0402795677355975e+01 -1 1 0
388 1 2.4047133409192454e+00 2.3642324339044603e+00 1.4376631151169649e+01 -2 2 0
448 1 4.2214317328924267e-01 3.2976604062376373e+00 1.1873895877937596e+01 0 0 0
118 2 1.1469352786748503e+00 4.5155689773006609e+00 1.0390137406309831e+01 0 0 0
455 1 6.0271098569649961e+00 2.7961464235808382e+00 1.2012607090256088e+01 -1 -9 0
282 2 5.2124231855603220e+00 2.2170885244803231e+00 1.2216930284097710e+01 0 1 0
254 1 3.4424842026004994e+00 3.4601704489253562e+00 1.1088014762130845e+01 -3 -1 0
387 2 8.0022525923043530e-01 2.3328741919998706e+00 1.1837450820823296e+01 0 1 0
409 1 5.5924922716363739e+00 1.6082452926408808e+00 1.2874015842218601e+01 -1 1 0
390 2 2.7267841081806092e+00 3.1938504018383047e+00 1.4880160152857485e+01 -2 2 0
351 2 3.5871828013170903e+00 1.9558361851651682e-01 1.2267983106571902e+01 -2 -1 0
389 1 2.3388440057783106e+00 3.9811265470232238e+00 1.4462457034921876e+01 -2 2 0
152 1 5.9869405004812193e-01 3.6050291033907056e-01 1.3075898813864770e+01 3 6 0
220 1 2.6774551882157520e+00 1.1129894085371336e-01 1.2606041768189277e+01 0 1 0
343 1 6.4869615168129902e-01 3.7229292872621538e+00 1.9003334745070312e+01 4 -3 0
426 2 3.3970723487100689e+00 1.8581317091827199e+00 1.7971829377108875e+01 5 1 0
460 1 4.9384982035039178e+00 4.6306716838834605e+00 1.6948254669324793e+01 -2 3 0
345 2 1.4144379812036860e+00 4.3783082201778436e+00 1.8812215128798954e+01 4 -3 0
461 1 4.5701929652550382e+00 3.7712099556610599e+00 1.8066030540184105e+01 -2 3 0
444 2 5.4255382117530040e+00 3.6463014215615832e+00 1.5276382882960410e+01 5 1 0
482 1 4.2537974443949056e-01 3.0146013591147605e+00 1.5809751245584094e+01 4 6 0
425 1 2.6163768840851205e+00 2.3788961237819817e+00 1.7496004064640278e+01 5 1 0
424 1 3.1080361740110258e+00 1.3506077412167197e+00 1.8735579538853905e+01 5 1 0
442 1 5.8172146420032584e+00 2.7802776317248048e+00 1.5377019562491833e+01 5 1 0
344 1 2.0088147674531873e+00 4.3958421215027697e+00 1.9595401608774221e+01 4 -3 0
304 1 4.0745336856630079e+00 6.7391301028150608e-02 1.7135764058840095e+01 7 -3 0
443 1 4.4251276532658368e+00 3.4607190481644321e+00 1.5120984724964416e+01 5 1 0
416 1 4.8184457097367108e+00 1.4878734401693876e+00 2.3109235001234524e+01 -1 5 0
485 1 1.4373813114325376e+00 4.3657643250123748e+00 2.2352878568430825e+01 -4 0 0
223 1 6.6463294536103623e+00 8.5871350964960758e-01 2.4444576565322699e+01 4 -2 0
417 2 5.6141413436102168e+00 1.1895162571975728e+00 2.2641905117689113e+01 -1 5 0
158 1 3.9768501969823866e+00 2.7958965890057246e+00 2.4443997888674680e+01 -2 1 0
213 2 5.9356503563765628e+00 3.4630819444588377e+00 2.1215904226178353e+01 -6 1 0
397 1 1.4128864092717304e+00 2.2274106198237567e+00 2.1192715809208071e+01 -2 -3 0
415 1 5.9963165602447868e+00 1.9901639581457451e+00 2.2199403213337746e+01 -1 5 0
418 1 6.6284248823439542e+00 2.2725923570218831e-01 2.0953702053889018e+01 -2 -1 0
470 1 4.9872584764220473e+00 3.6766012455168702e+00 2.1174407376637149e+01 -6 0 0
504 2 2.2744418518958804e+00 4.8193403934782153e-01 2.0302979908253466e+01 1 -11 0
399 2 9.2536547484006770e-01 2.9915104498031595e+00 2.1553695395152339e+01 -2 -3 0
212 1 6.1818449212392048e+00 3.4302870411127744e+00 2.0289077965972972e+01 -6 1 0
303 2 3.2427574706313296e+00 2.1730191572362809e+00 2.4211588761103908e+01 -2 5 0
398 1 3.7440473195909718e-01 2.4611451157050492e+00 2.2149231643788880e+01 -2 -3 0
503 1 2.8029268003423877e+00 4.2323919570722901e-01 2.1083661909924416e+01 1 -11 0
413 1 5.8801957783799628e+00 4.5288232542089553e+00 2.4631286648970327e+01 -2 6 0
484 1 1.3366798491176590e+00 4.4660634031806934e+00 2.3808518030114961e+01 -4 0 0
395 1 4.4278192801514784e+00 4.1242625093070151e+00 2.8674575984628337e+01 2 12 0
288 2 1.8966445339566371e+00 1.6934899859349617e+00 2.6748712795028002e+01 4 0 0
340 1 1.2261538124620319e+00 3.3561781810116491e+00 2.6638169514813569e+01 -3 3 0
414 2 5.5514800527069497e+00 3.7583093656098314e+00 2.5051397823106544e+01 -2 6 0
449 1 5.2869723405633415e+00 4.4303578272200692e+00 2.6894761654325897e+01 7 -8 0
224 1 5.7194821434668484e+00 8.2710881195961217e-01 2.5707817475681850e+01 4 -2 0
396 2 4.2057581655361265e+00 3.5694820612351443e+00 2.9526341960067235e+01 2 12 0
473 1 3.7235200744971775e+00 1.9358203194794166e+00 2.9365708822552417e+01 1 3 0
474 2 3.4263800380023204e+00 1.0851233974802561e+00 2.9050775215058959e+01 1 3 0
287 1 1.4179862596794932e+00 9.3095272948256580e-01 2.6268188225863149e+01 4 0 0
342 2 8.2706662640168693e-01 4.0752489076048342e+00 2.6187265783430455e+01 -3 3 0
472 1 4.2240804898686370e+00 4.9846556909775658e-01 2.8972083829160667e+01 1 3 0
311 1 2.4531826520307565e+00 1.2766600707171629e+00 2.7451036484996461e+01 3 0 0
225 2 6.5144478286122762e+00 3.6047530813831374e-01 2.5368116055496273e+01 4 -2 0
412 1 6.3414353647336323e+00 3.1413655938739593e+00 2.5139856716351240e+01 -2 6 0
233 1 2.4786548639912493e+00 4.0206117844887723e+00 2.9758638003510939e+01 2 -5 0
301 1 2.9913370567930042e+00 1.8799014941556720e+00 2.5117223553138942e+01 -2 5 0
394 1 4.8397976126139195e+00 3.9809214665436858e+00 3.0244028280346946e+01 2 12 0
526 1 1.8456082062287356e+00 3.2848636335241750e+00 3.1654731918853003e+01 3 -7 0
528 2 2.2202342759881919e+00 2.7797323959529967e+00 3.2478704458670208e+01 3 -7 0
346 1 5.2521573101333470e+00 3.4688568796979484e+00 3.3948590933834190e+01 7 16 0
348 2 6.0649115580953001e+00 2.9720169537941707e+00 3.3680899413129296e+01 7 16 0
527 1 2.5219081558134584e+00 1.9302103861487938e+00 3.2251927276643713e+01 3 -7 0
190 1 6.5597519218440423e+00 3.6656651344020617e+00 3.1971810213136020e+01 3 -8 0
490 1 3.2420928753612475e+00 3.6546493073081221e+00 3.3307090021046669e+01 3 1 0
347 1 5.8548244391509536e+00 2.0223178687424439e+00 3.3961347334638575e+01 7 16 0
382 1 1.9347496671138038e+00 5.7748272867607608e-01 2.9973049765341848e+01 8 -1 0
495 2 5.7647013044640429e+00 3.2031321467478846e-01 3.4169839862465174e+01 6 -6 0
402 2 6.6638409290641807e+00 3.9427777163870563e+00 3.0970646443281435e+01 3 -8 0
218 1 4.8684415080976260e+00 2.5004455261179628e-02 3.4389673143456271e+01 6 -6 0
234 2 1.5263462237962624e+00 4.1777396393741792e+00 3.0052918975946934e+01 2 -5 0
492 2 3.7617332108249530e+00 4.0171892164269645e+00 3.4090105441110872e+01 3 1 0
393 2 2.7777347622369392e-01 1.1799618569294275e+00 3.4868952881197593e+01 2 0 0
383 1 6.4737173263046899e-01 5.9326665094623898e-01 3.1005228570514284e+01 8 -1 0
392 1 1.1575843744968131e+00 7.2244984515159816e-01 3.4801401656411734e+01 2 0 0
384 2 1.0396657624193035e+00 2.4847881251668111e-01 3.0160390411158755e+01 8 -1 0
498 2 2.8645518340429614e+00 4.0270586828044352e-02 3.4667992359772882e+01 9 -4 0
491 1 3.2022387926783087e+00 3.8262387600444678e+00 3.4793230654739553e+01 3 1 0
171 2 3.1560659200098011e+00 2.5217670317147660e+00 3.8419402874922817e+01 0 0 0
157 1 4.1228993819533040e+00 2.6105779535509894e+00 3.8712866213589805e+01 0 1 0
494 1 1.1640641621794796e+00 9.4125411633166922e-01 3.8822011726619849e+01 0 0 0
510 2 1.5469146282213286e+00 3.6832457127462930e+00 3.5767653294674105e+01 4 -3 0
493 1 6.3438137014682860e+00 6.1047909300444979e-02 3.4921792247867280e+01 6 -6 0
508 1 1.4987149275240004e+00 3.8579242917301841e+00 3.6782485215737609e+01 4 -3 0
358 1 3.0631791900253882e+00 1.5988408994441370e+00 3.8606712535183668e+01 -2 -4 0
509 1 1.2010684334904858e+00 2.8081120116098237e+00 3.5519023072389928e+01 4 -3 0
333 2 1.1954172871192694e+00 4.4842658275863627e+00 3.8443156604437974e+01 0 0 0
30 2 5.3629609039105208e+00 2.2413275759411104e+00 3.9806962068310085e+01 -1 1 -1
219 2 1.5384326439629501e+00 1.6840664134027064e-01 3.8325092224056640e+01 0 1 0
312 2 6.0203635516843930e+00 4.6344115697174839e+00 3.8444234564165122e+01 -1 1 0
239 1 5.4002909232229444e+00 5.2687260087630772e-01 3.8127113309340828e+01 0 3 0
169 1 5.0972144807245181e+00 4.3183379722430892e+00 3.8245962482291816e+01 0 0 0
99 2 2.9083505234439597e+00 7.1880470802888112e+00 1.4957768003593939e+00 0 0 0
128 3 2.0977883114202212e+00 8.2055862188957693e+00 3.0178816755132494e+00 0 0 0
107 2 3.5525556551634510e+00 4.8374415959354540e+00 3.0601693945498272e+00 0 0 0
12 2 5.3953186294650060e+00 6.6673154943590687e+00 2.9562680266587575e+00 -1 0 0
7 3 4.4972523220811755e+00 5.8628179524126054e+00 4.4812633995477933e+00 -1 0 0
34 2 5.9446530377019764e+00 9.0750504251671131e+00 4.4930650036528732e+00 -1 0 0
105 2 2.8967861031415145e+00 7.2512022093439334e+00 4.4850233435987370e+00 0 0 0
1 3 4.5473672790838027e+00 5.9495228988791524e+00 1.5146942869384215e+00 -1 0 0
108 2 6.3938110493137956e-01 6.8698756402773649e+00 2.7899334901355033e+00 0 0 0
28 2 5.9463456987393819e+00 9.1821883629474357e+00 1.4362706607516356e+00 -1 0 0
6 2 5.4034655282374793e+00 6.7827794919026356e+00 6.4807624232888592e-02 -1 0 0
124 2 1.2723073144478367e+00 9.1324372106676162e+00 1.3590635682455610e+00 0 0 0
26 3 6.6740442533827480e+00 8.1508691345842994e+00 1.3525801849978933e-01 -1 0 0
32 3 6.9207357162459404e+00 8.3391930400860446e+00 2.9821339031318543e+00 -1 0 0
130 2 1.2506396467690792e+00 9.1325449755619541e+00 4.4680727972657674e+00 0 0 0
122 3 2.3144212877335648e+00 8.1859326699419519e+00 8.5409758336613295e-02 0 0 0
24 2 5.3196769468250862e+00 6.8851629926711038e+00 9.0309379221041954e+00 -1 0 0
119 2 3.6671299085880320e+00 4.9323293050249610e+00 8.8961131064803105e+00 0 0 0
114 2 6.2075260822971223e-01 6.7944330498084149e+00 5.9847072730114741e+00 0 0 0
134 3 2.0932401029402885e+00 8.3510143397866550e+00 5.9187889105710729e+00 0 0 0
18 2 5.2825430336527193e+00 6.8528231756368738e+00 5.9564738171713030e+00 -1 0 0
111 2 2.9362935401148000e+00 7.3511794625184557e+00 7.3774404307115642e+00 0 0 0
13 3 4.6208051094727587e+00 5.8889960664236103e+00 7.4735121316125488e+00 -1 0 0
136 2 1.1788588016654811e+00 9.1330984272406841e+00 7.3435306316474893e+00 0 0 0
120 2 5.6489162600785436e-01 6.9069227888584237e+00 8.9662148020280750e+00 0 0 0
140 3 2.1626562667173128e+00 8.0644534314900245e+00 8.8396396388040124e+00 0 0 0
113 2 3.4519356049320002e+00 5.0036353432945386e+00 5.9852654297580274e+00 0 0 0
40 2 5.9917916852565147e+00 9.1859391685337286e+00 7.5186897350796063e+00 -1 0 0
44 3 6.6967511673814499e+00 8.1783550072415725e+00 9.0703408157735250e+00 -1 0 0
38 3 6.8653612829509028e+00 8.3158001387886991e+00 6.1572436826886605e+00 -1 0 0
117 2 2.8357113375690539e+00 7.0815964967852647e+00 1.0384512232100825e+01 0 0 0
182 1 6.1486096640300083e+00 5.1560690486436505e+00 1.4281936998654055e+01 1 5 0
450 2 5.0921464340923750e+00 7.2006530457454971e+00 1.1898671625891394e+01 0 0 0
183 2 6.6144802228349846e+00 5.9548114915173436e+00 1.3861362338254418e+01 1 5 0
19 3 4.4277092166144696e+00 5.7675907214913629e+00 1.0428777779441956e+01 -1 0 0
151 1 8.4545048980879534e-01 8.9747370460724802e+00 1.4482889782154954e+01 3 5 0
221 1 3.8248318177461593e+00 8.5812016332562262e+00 1.2109283234832491e+01 0 0 0
168 2 2.3395515105619520e+00 5.9461530726496132e+00 1.4104180347109196e+01 7 -4 0
350 1 1.9633059319772961e+00 6.9049449991012564e+00 1.0953516043664679e+01 -2 -2 0
355 1 5.6222691750553837e+00 6.9448703694363516e+00 1.2696225738678072e+01 0 6 0
432 2 7.4433544633873583e-01 6.8898700585173538e+00 1.1850012780910461e+01 0 0 0
255 2 3.6328917559761873e+00 4.8197282110748887e+00 1.1835833828804036e+01 -3 -1 0
281 1 1.1280890602186615e+00 6.7705462323322561e+00 1.2735878762694181e+01 0 1 0
446 1 5.5609964550724333e+00 8.0017062840510622e+00 1.1464052169275082e+01 -1 -1 0
166 1 3.0987085159283962e+00 6.0898566352725059e+00 1.3464792238294789e+01 7 -4 0
349 1 7.9259295399210494e-01 8.6640469616562896e+00 1.1196996300573922e+01 -2 -2 0
181 1 6.6215953007640742e+00 6.6643783169212405e+00 1.4525688240277363e+01 1 5 0
440 1 2.6577412996497523e+00 5.0842289335135380e+00 1.1919447926999259e+01 0 1 0
46 2 5.6953713562483550e+00 9.0838795458883226e+00 1.0487138007724893e+01 -1 0 0
22 2 5.9181947536319726e+00 4.7132627609263329e+00 1.0468831969328878e+01 -1 0 0
142 2 1.1535670801066100e+00 9.2541352056948565e+00 1.0531495726887755e+01 0 0 0
305 1 3.6078977664424685e+00 7.8232615190065191e+00 1.7095947719636413e+01 7 -4 0
306 2 4.3165236776863800e+00 8.4232400176332760e+00 1.7429581401431804e+01 7 -4 0
222 2 2.7300400320428979e+00 6.4441686132938445e+00 1.6677457336713328e+01 6 6 0
243 2 4.9175001836091781e+00 7.0768811589653451e+00 1.9701166220997536e+01 2 -13 0
308 1 1.9334482893611760e+00 6.8287606883950884e+00 1.6974596640181367e+01 5 5 0
430 1 3.0526317937649998e+00 5.7345837765707213e+00 1.7298054036796184e+01 6 6 0
242 1 4.7562924597545830e+00 7.6437542938881267e+00 1.8951737684000054e+01 2 -13 0
512 1 5.8097379810927512e+00 8.0908813067824426e+00 1.6291460529720027e+01 1 -4 0
378 2 4.5659146529959216e-01 7.8903187427929495e+00 1.5649171363359269e+01 -1 7 0
466 1 9.1891006645809170e-01 6.2923456958464845e+00 1.9141318114401120e+01 0 -2 0
241 1 5.5704031558905891e+00 6.3693041729440392e+00 1.9234199425402451e+01 2 -13 0
377 1 1.2829858863293708e-01 7.0765619847664780e+00 1.5158823717206642e+01 -1 7 0
513 2 6.6289373885147986e+00 8.0044661351759672e+00 1.5745171975776666e+01 1 -4 0
468 2 9.4158951185081574e-01 7.2180391920558984e+00 1.9430533246333511e+01 0 -2 0
341 1 2.6028492627572444e+00 6.2274852868781050e+00 1.5009905738194202e+01 9 0 0
511 1 6.8365234724235018e+00 8.9342214019570871e+00 1.5529563994850481e+01 1 -4 0
462 2 4.5288470824360374e+00 4.7379416727371124e+00 1.7821919296726115e+01 -2 3 0
429 2 3.4802094708230533e+00 4.7494210495421676e+00 2.0861191637008911e+01 -2 7 0
428 1 2.9226691309843433e+00 5.0799958006383736e+00 2.1646633418297455e+01 -2 7 0
373 1 3.2015265293308697e+00 5.6735016573964172e+00 2.4086559890408157e+01 -1 5 0
375 2 4.0263079572913867e+00 6.1361601002211339e+00 2.3953134574890516e+01 -1 5 0
441 2 4.2219891676024526e+00 8.2631661739875906e+00 2.2187768109187409e+01 7 3 0
431 1 4.6095814797667938e+00 7.8066169512768306e+00 2.1357623773010356e+01 7 2 0
374 1 3.8276439651755960e+00 6.7652489288024960e+00 2.3252273171093144e+01 -1 5 0
439 1 4.8960944864513838e+00 8.9201734981495893e+00 2.2477141092543803e+01 7 3 0
149 1 5.7680385097746285e+00 6.5959967352231610e+00 2.2732180893796919e+01 3 5 0
368 1 3.7494362113100288e-01 7.1923776365911598e+00 2.1053574864029326e+01 3 4 0
367 1 6.2419094920734441e-01 7.0773747359978696e+00 2.2705334703185557e+01 3 4 0
148 1 6.6646095477465526e+00 5.4160379484811569e+00 2.2209713892975348e+01 3 5 0
486 2 1.5031272681179912e+00 5.0350593602112372e+00 2.3049062134443268e+01 -4 0 0
369 2 6.2836884056078901e-02 7.4803025239893408e+00 2.1977649849675977e+01 3 4 0
427 1 3.8463945218744886e+00 5.5402343216276124e+00 2.0436060276815354e+01 -2 7 0
150 2 6.6806808163761540e+00 6.1520690671242111e+00 2.2779372754132918e+01 3 5 0
502 1 1.9866828104777798e+00 8.8130827926209570e+00 2.0143365869239972e+01 1 -12 0
420 2 6.9383582511718886e+00 9.0524482528636572e+00 2.0129842688241578e+01 -2 -2 0
419 1 6.1636781714047446e+00 8.4147366731362645e+00 1.9972109017045710e+01 -2 -2 0
309 2 5.3027586997663407e+00 5.0356221998182757e+00 2.7682104911689855e+01 6 -8 0
197 1 5.5051493896890049e+00 7.8490145306559498e+00 2.9432444159059152e+01 4 1 0
265 1 4.4224866057650178e+00 6.9148238203255881e+00 2.5593609085423587e+01 3 -7 0
437 1 1.4461404602390953e+00 6.7672634455409506e+00 2.8500239281388431e+01 -1 -3 0
436 1 1.0412846613264253e+00 7.5310830981192654e+00 2.9822580767948242e+01 -1 -3 0
267 2 4.3548045921156984e+00 7.1636093153360427e+00 2.6554933336361771e+01 3 -7 0
198 2 5.6783704659730079e+00 8.6586766412558696e+00 2.8760607290708805e+01 4 1 0
438 2 1.3877146124171391e+00 6.6377777965929843e+00 2.9527710789322590e+01 -1 -3 0
307 1 4.9175040112665078e+00 5.8216390839691190e+00 2.7314192908585930e+01 6 -8 0
266 1 3.3133540525608995e+00 7.0516777394242336e+00 2.6641143338523463e+01 3 -7 0
196 1 5.3458581427861160e+00 8.3119287648748514e+00 2.7919664079658006e+01 4 1 0
175 1 1.4580139770015510e+00 5.8302991324801692e+00 2.6599359072261667e+01 -2 -11 0
228 2 1.4047515687086187e-01 8.7100468659988817e+00 2.5983906897730506e+01 3 -8 0
177 2 1.7159225544409982e+00 6.7040041224716909e+00 2.6935867451465647e+01 -2 -11 0
176 1 1.0982532098793776e+00 7.4314995490161673e+00 2.6536364881840424e+01 -2 -11 0
497 1 3.1358713429746823e+00 9.0684954023104059e+00 3.3810161277519761e+01 9 -5 0
235 1 4.3438656613689561e+00 5.7328623111568708e+00 3.4202802543238782e+01 3 -3 0
155 1 6.3165517513293938e+00 7.3981011765854010e+00 3.1406482300633950e+01 4 -2 0
489 2 3.6552650609011463e+00 7.9324306528742863e+00 3.1982970290440431e+01 0 1 0
238 1 4.2556061034180557e+00 7.1563505852842964e+00 3.3480867502306772e+01 4 -3 0
488 1 2.6770245267384887e+00 7.5720043084443018e+00 3.1941671563183693e+01 0 1 0
487 1 4.1573691813034408e+00 7.2685143236951051e+00 3.1393525139356342e+01 0 1 0
330 2 1.0083165441794080e+00 7.0812041241831905e+00 3.2562353747207489e+01 3 -4 0
433 1 6.2682830511777334e+00 9.0470596801978687e+00 3.2618226067414973e+01 -1 -4 0
240 2 4.5946504898560310e+00 6.6437365052323543e+00 3.4318252895502788e+01 4 -3 0
328 1 3.8490682177658064e-01 6.5569241841687758e+00 3.1995860815586525e+01 3 -4 0
156 2 5.9318570759419353e+00 6.7202620188256033e+00 3.0705769271844211e+01 4 -2 0
154 1 6.4415023457664375e+00 5.8979591201542432e+00 3.0871387237449376e+01 4 -2 0
329 1 8.0282043149888560e-01 6.8858018731729480e+00 3.3517777695459813e+01 3 -4 0
232 1 1.3342622954744108e+00 5.1926396287613414e+00 2.9930627713437186e+01 2 -5 0
506 1 2.8314942117989688e+00 6.8735058605508250e+00 3.7010640535379693e+01 3 2 0
246 2 3.1523337765509805e+00 6.9880742252864056e+00 3.8541485873697475e+01 2 -1 0
507 2 2.3903938487122280e+00 6.8718356150418272e+00 3.6023549098175586e+01 3 2 0
244 1 3.3218385898600333e+00 5.5594440612914147e+00 3.9121259206067080e+01 2 -1 0
505 1 3.1163178095645487e+00 6.5946110938126976e+00 3.5443687722952603e+01 3 2 0
496 1 2.7931512795669593e+00 8.5583265426435329e+00 3.5274428046354515e+01 9 -5 0
331 1 5.8484753463108481e+00 5.5651621604212496e+00 3.8829317670774984e+01 0 0 0
170 1 6.6981680796853009e+00 5.1158935130770233e+00 3.6356934100158831e+01 -3 -2 0
245 1 4.1655110612991031e+00 7.0461654189322207e+00 3.8503631501107030e+01 2 -1 0
263 1 1.3471232996317062e+00 5.4349248260458856e+00 3.8540512520824514e+01 1 5 0
145 1 8.8636842702124929e-01 9.1661727422395352e+00 3.7669270508535817e+01 1 8 0
361 1 3.1119557990078178e-01 4.8728461640051295e+00 3.5354388401341019e+01 5 11 0
360 2 5.7261750150749204e+00 8.8459015594676753e+00 3.8189097029595239e+01 -2 -5 0
184 1 5.8618320181460115e-01 7.5131224894092776e+00 3.6373252001113372e+01 3 -3 0
102 2 6.9332774395977403e-01 6.8852088612193709e+00 3.9814597401566424e+01 0 0 -1
359 1 6.4793336060276481e+00 8.9834160390676185e+00 3.7501611956970017e+01 -2 -5 0
236 1 6.6178334107329162e+00 6.0622841000334464e+00 3.5104406444353934e+01 -4 1 0
101 2 3.5214211453815913e+00 4.8563190834858316e+00 3.9793439098541356e+01 0 0 -1
127 3 1.3637686012179490e+01 1.2111399007115020e+00 4.3481593939818808e+00 -1 1 0
56 3 1.1426373691670408e+01 3.5602932677113945e+00 2.9268685451676024e+00 -1 0 0
75 2 1.2464615995532487e+01 2.6995070093956848e+00 1.4624733250371653e+00 -1 1 0
73 3 9.2451148677573389e+00 1.0897710095499884e+00 1.4185590289414145e+00 -1 1 0
35 2 8.2171063080638067e+00 3.0533229241744275e-01 3.0373053855729415e+00 -1 1 0
81 2 1.2309101101793436e+01 2.5547795064908296e+00 4.3106532888448417e+00 -1 1 0
84 2 9.9386245454342657e+00 2.1953954386275161e+00 2.9601299369372818e+00 -1 1 0
27 2 7.6500782997752381e+00 2.5903448596424528e+00 1.6267415705041910e+00 -1 1 0
83 2 1.2819705040192167e+01 1.6377841978145707e-01 2.9712817732732235e+00 -1 1 0
79 3 9.2889163834414834e+00 1.2520812541543596e+00 4.4214640888164816e+00 -1 1 0
121 3 1.3924490682580558e+01 1.1869408200029792e+00 1.3446237911318548e+00 -1 1 0
33 2 7.7839149980218849e+00 2.6447840799235958e+00 4.5607233007490828e+00 -1 1 0
52 2 1.0629293408329332e+01 4.4571268905468049e+00 1.4053159050745410e+00 -1 0 0
58 2 1.0645184851467949e+01 4.5054801939884701e+00 4.3761254144036661e+00 -1 0 0
78 2 1.0018746548270409e+01 2.0762857437920865e+00 2.5459390945855986e-01 -1 1 0
77 2 1.2773154635770897e+01 1.9995321039555131e-01 3.7609993647933493e-02 -1 1 0
41 2 8.2405903895138906e+00 2.8528532997295936e-01 5.9968357303212061e+00 -1 1 0
85 3 9.1978139547525704e+00 1.2434189358965337e+00 7.4217211339584290e+00 -1 1 0
39 2 7.6759652294052048e+00 2.6880469456639178e+00 7.5039063363637455e+00 -1 1 0
95 2 1.2798325844863209e+01 4.0238627120721626e-01 8.8917009876146302e+00 -1 1 0
47 2 8.1954787523673005e+00 4.8126728380129469e-01 8.8681364074394136e+00 -1 1 0
68 3 1.1483763579061572e+01 3.5302717702050930e+00 9.0506253148300750e+00 -1 0 0
96 2 9.9265136364388109e+00 2.3385696494394757e+00 8.9465781858190638e+00 -1 1 0
87 2 1.2201420735379637e+01 2.6843438524347594e+00 7.4854706424120234e+00 -1 1 0
62 3 1.1364965259421481e+01 3.7377024701764099e+00 5.9691175902888851e+00 -1 0 0
90 2 9.9476461962015819e+00 2.2692044236772717e+00 5.8311642793416310e+00 -1 1 0
89 2 1.2806545163308076e+01 3.2629721525437588e-01 5.9126676222186987e+00 -1 1 0
64 2 1.0358982317861425e+01 4.4617942462811069e+00 7.3508306117852689e+00 -1 0 0
133 3 1.3847992960462744e+01 1.3010723292389448e+00 7.4297382338268498e+00 -1 1 0
191 1 9.8785173323160791e+00 3.4169288328000218e+00 1.1445282843032865e+01 -1 1 0
91 3 8.9936306179531762e+00 1.3012729313671909e+00 1.0233915982416653e+01 -1 1 0
365 1 9.3899373030114628e+00 3.0504920402525175e+00 1.3612931370312234e+01 -2 -5 0
366 2 9.5069643084796134e+00 2.9157296952365894e+00 1.4551835933497626e+01 -2 -5 0
469 1 1.1221596315374368e+01 2.5779669095685018e+00 1.1632948627976262e+01 -1 0 0
336 2 1.0241295095295374e+01 2.4979471033972280e+00 1.1803726517661715e+01 1 -1 0
93 2 1.2394529391740621e+01 2.6879786213889632e+00 1.0427038280666299e+01 -1 1 0
195 2 8.4076843112502857e+00 3.6782000288636885e-01 1.2170293473970908e+01 -1 1 0
251 1 1.1932709217052704e+01 1.1934773218225965e+00 1.3530051943294598e+01 6 6 0
45 2 7.6485886985911824e+00 2.5937541727090725e+00 1.0534479234556180e+01 -1 1 0
70 2 1.0501266015683532e+01 4.6520725486750454e+00 1.0536782442851024e+01 -1 0 0
139 3 1.3536103375892456e+01 1.2244027295971627e+00 1.0458429379327260e+01 -1 1 0
192 2 1.2890457521252634e+01 2.5799974544114512e-01 1.1894107184936544e+01 -1 1 0
454 1 7.6334300408106301e+00 4.2891633904065332e+00 1.1507599153358145e+01 -1 -9 0
364 1 1.0334704201456004e+01 2.4180164810864051e+00 1.4582171044744722e+01 -2 -5 0
252 2 1.1930755317121774e+01 1.2991664275196204e+00 1.4496191671206953e+01 6 6 0
250 1 1.2583154418361788e+01 2.0543562947508169e+00 1.4590652530102533e+01 6 6 0
385 1 8.9743974243670817e+00 2.0398604878801116e-01 1.3035223761345035e+01 0 2 0
481 1 1.3083629942799252e+01 3.2323358052865543e+00 1.6557343083782104e+01 3 6 0
280 1 7.9971091136711907e+00 1.6893438332114856e+00 1.5045378195325865e+01 -1 -1 0
483 2 1.3487951509138886e+01 3.3653912609430265e+00 1.5623142378705090e+01 3 6 0
299 1 1.2151436819705735e+01 3.8942775137356382e+00 1.8541668871487587e+01 1 -7 0
320 1 9.8753033051378125e+00 3.5796183428635082e+00 1.9383126058543812e+01 3 -5 0
262 1 1.1681183600015672e+01 4.9237160956829840e-01 1.6201167122965387e+01 1 5 0
298 1 1.2738707081095408e+01 2.5461334860243729e+00 1.9009535365711763e+01 1 -7 0
407 1 8.2329398560491835e+00 2.2505054070918962e+00 1.9000325692827793e+01 0 -1 0
300 2 1.2849179675650998e+01 3.2470929549045731e+00 1.8323191075816791e+01 1 -7 0
408 2 7.3319002585093802e+00 2.1664853711882892e+00 1.8598582236934288e+01 0 -1 0
321 2 9.7145270891666691e+00 2.7272400539333943e+00 1.9929285300464517e+01 3 -5 0
447 2 7.1793007761482759e+00 1.2749596284860178e+00 1.5601724297085754e+01 -2 -2 0
445 1 7.3237282469850999e+00 1.6035566205087659e+00 1.6564090849440806e+01 -2 -2 0
406 1 7.0434454032544469e+00 1.4028119762234903e+00 1.9103034066266318e+01 0 -1 0
325 1 9.8737750159314519e+00 4.5724453031540975e+00 1.5482407359833456e+01 5 -5 0
187 1 1.2464431969607533e+01 9.5645301531833316e-01 2.0983801564652367e+01 0 3 0
189 2 1.3220897946163428e+01 2.2824149780360012e+00 2.4116990120377327e+01 -2 4 0
317 1 1.3208825271468596e+01 8.1760985627537652e-01 2.3132559835732312e+01 2 6 0
518 1 9.1306586164881978e+00 2.5080199879506182e+00 2.4662019994790072e+01 -6 -3 0
208 1 1.1162373212811193e+01 1.0150718588972336e+00 2.4175695396320460e+01 1 -4 0
318 2 1.2560758595811834e+01 3.1592660630782682e-01 2.2505333488131527e+01 2 6 0
453 2 9.3826197267300344e+00 4.1138739430671105e+00 2.2306793584887870e+01 -4 -3 0
451 1 8.6897330705262377e+00 4.0527209387625973e+00 2.2970616761945095e+01 -4 -3 0
519 2 8.4446907277548373e+00 3.2174499733719046e+00 2.4734052162422753e+01 -6 -3 0
205 1 1.0877808533752708e+01 4.3876856882159805e+00 2.2920310211661125e+01 6 1 0
210 2 1.0282840896315392e+01 7.7740710816153014e-01 2.4563888519040841e+01 1 -4 0
203 1 1.2745887523033572e+01 3.1237210227320293e+00 2.3951550012326035e+01 -2 5 0
319 1 9.5607988845942309e+00 3.0282258631484651e+00 2.0889744840041637e+01 3 -5 0
310 1 1.1359499368353722e+01 1.6156597335208072e+00 2.0247244776202372e+01 0 3 0
204 2 1.2236030445553025e+01 1.1805713742953443e+00 2.0069494191730087e+01 0 4 0
524 1 1.3943738643311093e+01 2.6172847702553965e+00 2.4680420707570644e+01 -2 4 0
517 1 8.7282586813681871e+00 3.6996527811887892e+00 2.5557539222237299e+01 -6 -3 0
291 2 9.7991478710452320e+00 1.0927197189204536e+00 2.7661656356922681e+01 3 8 0
178 1 1.2450212693965671e+01 1.1728348957015953e+00 2.7938296778861435e+01 -1 -2 0
201 2 1.1703903225469206e+01 2.9592590131321130e+00 2.8196554904736807e+01 6 -10 0
478 1 1.2288644100363010e+01 3.0488265580407439e+00 2.9834710920535024e+01 -2 -4 0
289 1 9.5435368923757657e+00 9.3903737634972062e-01 2.6679534081386404e+01 3 8 0
199 1 1.1696430915131945e+01 3.9068215889624351e+00 2.7820682263191237e+01 6 -10 0
200 1 1.0823528511265403e+01 2.5056018533754747e+00 2.8165737636506044e+01 6 -10 0
290 1 9.5940289148354658e+00 2.1676351998296850e-01 2.8081803686473279e+01 3 8 0
180 2 1.2956031660691982e+01 3.5870948384678142e-01 2.8126799180142413e+01 -1 -2 0
522 2 8.0576140852200524e+00 2.0083705080998118e+00 2.9709057177347280e+01 5 -10 0
520 1 8.5182900361044229e+00 1.9178748726415433e+00 2.8823736326192638e+01 5 -10 0
179 1 1.3634881241389152e+01 4.3608115618587329e-01 2.8839000300287324e+01 -1 -2 0
256 1 1.3942521539641875e+01 4.2591500305709999e+00 2.6623338176438036e+01 -4 3 0
293 1 1.2689670086522602e+01 4.0288478734072948e+00 3.1950185690927434e+01 -5 0 0
275 1 1.0226800645336777e+01 8.8581350169210349e-01 3.3587203531543999e+01 5 2 0
276 2 1.1079135959277471e+01 7.5169327675548570e-01 3.4212911323952071e+01 5 2 0
274 1 1.1727505100810761e+01 3.3833699520444682e-01 3.3578776429427336e+01 5 2 0
337 1 9.3968903675984325e+00 2.6948087104352805e+00 3.2962648695831739e+01 2 2 0