LAMMPS data file via write_data, version 5 Jun 2019, timestep = 1000000

600 atoms
3 atom types

0.0000000000000000e+00 1.1408130000000000e+01 xlo xhi
0.0000000000000000e+00 1.1408130000000000e+01 ylo yhi
-1.1975780300000025e+00 4.8532678030000000e+01 zlo zhi

Masses

1 1
2 16
3 47.86

Atoms # atomic

172 3 2.1882590019815975e+00 2.9477950966449922e+00 4.4955854360316607e+00 0 1 0
26 3 4.3701964909166566e+00 9.0253423023402335e-01 -5.0350068070295040e-01 -1 1 0
31 2 3.7955694602885299e+00 2.8720612058559665e+00 -6.8651601352473335e-02 -1 1 0
32 2 3.8732578698471483e+00 9.3328364563757338e-01 1.6184891708976423e+00 -1 1 0
203 2 2.4607706392130950e+00 4.8274144054982830e+00 4.9768732103438227e+00 0 1 0
175 2 4.5877065026495956e-01 3.0578128997135390e+00 2.0602654044359761e-01 0 1 0
173 2 3.5009877906778097e-01 2.9280448900408786e+00 4.2160421961731256e+00 0 1 0
169 3 2.8818596736913243e-01 3.0483036059732900e+00 2.0645204533126549e+00 0 1 0
174 2 2.1675745429111140e+00 3.0186633405160563e+00 2.5193019000940446e+00 0 1 0
50 3 4.3864029445094568e+00 4.8394621308925663e+00 -4.0371586963592360e-01 -1 1 0
29 2 4.0001594105216265e+00 2.7794465722414117e+00 4.0953393511070084e+00 -1 1 0
25 3 4.0378181994826265e+00 2.7946414319494752e+00 1.9534466334400067e+00 -1 1 0
56 2 4.1442813987373484e+00 4.7695460479373146e+00 1.5173772428428272e+00 -1 1 0
200 2 7.2055708145874836e-02 5.0484448359672012e+00 1.8022055072644385e+00 0 1 0
170 3 4.8504582803498078e-02 1.0658178454065881e+00 -1.9432296833219484e-01 0 1 0
176 2 3.5795673415786555e-01 1.1551869851607228e+00 1.7279818918909833e+00 0 1 0
179 2 2.2060170033867830e+00 9.9604934963605118e-01 4.9423644976987893e+00 0 1 0
194 3 7.9129160969476253e-02 4.8389706469628528e+00 -3.9272660303166523e-01 0 1 0
178 2 2.1178959999633348e-01 1.2678769578324645e+00 7.3974581006291773e+00 0 1 0
206 3 2.9279506636974573e-01 4.9161358360105432e+00 9.3957148916630615e+00 0 1 0
202 2 2.9588191333613617e-01 4.8648079834653695e+00 7.4162768038444895e+00 0 1 0
213 2 2.1865722331621775e+00 4.8084910308105844e+00 8.9978686329243178e+00 0 1 0
189 2 2.1714754187285008e+00 7.7940015557916731e-01 8.9457969147550305e+00 0 1 0
180 2 2.1304824315903268e+00 2.9575841360925543e+00 6.4872529236716883e+00 0 1 0
195 3 2.2034188101083236e+00 4.8013126781954139e+00 6.9573882729959422e+00 0 1 0
171 3 2.2927744274547446e+00 1.0936400973875759e+00 6.8810610836486106e+00 0 1 0
43 2 3.9997811380420125e+00 2.9006662168894297e+00 9.8294565377363767e+00 -1 1 0
182 3 2.7369706874397309e-01 1.0708164012691039e+00 9.4001331140947020e+00 0 1 0
34 2 4.0661876465622431e+00 1.1944407582027246e+00 7.3361872435293769e+00 -1 1 0
62 3 4.1091798395796681e+00 4.8617732953324895e+00 9.3282282275284967e+00 -1 1 0
58 2 4.1127225847621540e+00 4.8442770878988881e+00 7.3950696596043768e+00 -1 1 0
38 3 4.0138951020107330e+00 1.0402352458177133e+00 9.3871209964441160e+00 -1 1 0
187 2 2.5004458394534973e-01 3.0059028597260600e+00 9.7704466041596927e+00 0 1 0
214 2 2.3349414377157909e-01 4.8227350285911026e+00 1.7043815673765799e+01 0 1 0
185 2 2.7003401456386195e-01 2.8979328209388071e+00 1.3794125438062705e+01 0 1 0
207 3 1.8940148583180081e+00 4.7735659284066978e+00 1.6632778394690938e+01 0 1 0
181 3 2.2674290942374253e-01 2.9638392141100720e+00 1.1795812960632910e+01 0 1 0
190 2 2.2545673319459669e-01 1.3455203288659734e+00 1.7270318548417158e+01 0 1 0
215 2 2.0049486134391055e+00 4.7730817404936250e+00 1.4586176810350633e+01 0 1 0
186 2 2.0641274778551439e+00 2.8226219404733226e+00 1.2222668132512466e+01 0 1 0
183 3 1.8650410593388589e+00 1.0054168711267639e+00 1.6640402423633635e+01 0 1 0
184 3 2.1144184607297398e+00 2.9169826985715175e+00 1.4233854480704190e+01 0 1 0
192 2 2.2245269047454572e+00 2.9162163890828627e+00 1.6194479999439597e+01 0 1 0
37 3 4.0427162141120281e+00 3.0069772502665404e+00 1.1852332666065697e+01 -1 1 0
191 2 2.2559043066888411e+00 9.3839384895933153e-01 1.4623360499437641e+01 0 1 0
41 2 4.0121709064119226e+00 2.9885042241252822e+00 1.3749204427949453e+01 -1 1 0
188 2 2.1014430539895179e-01 1.1248400464166599e+00 1.1352754969125579e+01 0 1 0
212 2 2.3418197354675371e-01 4.8598743005697624e+00 1.1447369512699881e+01 0 1 0
44 2 4.0467224276368832e+00 1.0413970416714211e+00 1.1380141789359689e+01 -1 1 0
68 2 4.1197339289750756e+00 4.8077672511672764e+00 1.1309003008894479e+01 -1 1 0
377 1 1.0791648375721468e+00 3.5486959788203571e+00 2.0861974155088511e+01 -3 -12 0
376 1 1.4467361553109401e+00 3.5677198814059383e+00 1.9254154164439097e+01 -3 -12 0
476 1 7.8059109424529094e-01 2.3660301123090582e-01 2.0685329529198089e+01 -6 2 0
236 1 4.3952964783822290e+00 1.2037789983850034e+00 1.8308879424674736e+01 0 1 0
388 1 5.0195468981264062e+00 4.1626049691165568e+00 2.1310246171303749e+01 -2 -3 0
235 1 2.6946538358398104e+00 1.9689429778351650e-01 1.8835626134098469e+01 0 1 0
375 2 2.7524840683164480e+00 4.6603845031656013e+00 1.8360158892889476e+01 0 1 0
231 2 1.1158454962347399e+00 3.6553153563814886e+00 2.2981339489707846e+01 4 5 0
390 2 4.3179256712715093e+00 3.5447819227464725e+00 2.1453553650139238e+01 -2 -3 0
237 2 2.9268452506400404e+00 8.5673733585398981e-01 1.8188103437994375e+01 0 1 0
373 1 3.7524171781690208e+00 4.7185605626123506e+00 1.8330844569001840e+01 0 1 0
70 2 5.4347758198403504e+00 4.8904111585346115e+00 1.8442962679824067e+01 -1 1 0
378 2 7.2078271785000814e-01 3.4307000412222890e+00 1.9941774786270997e+01 -3 -12 0
389 1 4.1172964956652880e+00 3.2790194172116354e+00 2.0529226571491467e+01 -2 -3 0
229 1 1.6033418399248505e+00 2.9736605963332621e+00 2.3443879017978830e+01 4 5 0
475 1 5.0426418477163626e-01 1.7574029071789934e+00 2.0310589416817091e+01 -6 2 0
46 2 5.3937040209686460e+00 1.1799385171230077e+00 1.8241939092575123e+01 -1 1 0
230 1 1.3931703248079849e-01 3.5526029465153472e+00 2.3194125362869162e+01 4 5 0
428 1 5.2051794044556869e+00 2.0410672358268505e+00 2.2522536115278111e+01 -4 2 0
449 1 1.8105733142472447e+00 5.0807576055612094e+00 2.3465106172943024e+01 2 -1 0
477 2 6.7530585252154093e-02 8.9538415515912417e-01 2.0672826927750393e+01 -6 2 0
445 1 3.1535210439482144e+00 8.3149608812855313e-01 2.4520518913349157e+01 9 0 0
447 2 2.3234020247375522e+00 1.3495589648694546e+00 2.4664330731242316e+01 9 0 0
311 1 1.7155031952736073e+00 4.9264512529662072e+00 2.7029380285931918e+01 -7 1 0
464 1 2.4047441530974067e+00 1.2356863940614193e+00 2.8413832705174503e+01 10 -3 0
465 2 2.6935796308404467e+00 1.8719000240317738e+00 2.7768762350560365e+01 10 -3 0
446 1 1.5757004488175597e+00 6.8498217660063077e-01 2.4789124070706219e+01 9 0 0
312 2 1.2503338152177443e+00 4.1138136232322431e+00 2.7329506421872669e+01 -7 1 0
524 1 2.5578442436334353e-01 4.6528079653029755e+00 2.8784186699906581e+01 6 -1 0
245 1 5.3721197228401589e+00 4.0759489733731700e+00 2.7307387827747732e+01 -3 2 0
341 1 4.6183639286933040e+00 1.1808675122508558e+00 2.9637502367960561e+01 -1 -5 0
244 1 4.7842033808808528e+00 2.5986254571588336e+00 2.7193213959167082e+01 -3 2 0
463 1 2.3481879537150721e+00 1.4918491330117607e+00 2.6870451739491351e+01 10 -3 0
310 1 1.8080418435576071e+00 3.4668299702398735e+00 2.7727464937785790e+01 -7 1 0
591 2 2.7549930647097976e-02 2.8773835127476260e-01 2.5637995318608489e+01 -1 -2 0
246 2 5.6275899347895617e+00 3.1069499001078493e+00 2.7156369813211327e+01 -3 2 0
291 2 4.0584782842603468e+00 1.6990863733069994e+00 3.2526922183854467e+01 5 -1 0
289 1 3.4386156678518556e+00 1.1998275091147703e+00 3.3090698522399599e+01 5 -1 0
290 1 4.9691964838372256e+00 1.6470973346024380e+00 3.2936780925543083e+01 5 -1 0
342 2 5.5006196350427397e+00 8.4606867455207246e-01 3.0015580136994153e+01 -1 -5 0
482 1 3.4235176328996348e+00 4.8211693641114781e+00 3.4277760798665732e+01 3 -6 0
483 2 3.3426102406114571e+00 5.1306663956935772e+00 3.5238054307502374e+01 3 -6 0
456 2 2.1633897638218573e+00 8.7742634019592358e-01 3.0527084395023451e+01 5 0 0
502 1 3.7042551267310522e+00 3.3124154444310658e+00 3.2592061350842194e+01 1 -4 0
481 1 4.2065218770274431e+00 4.9314987322688619e+00 3.5617858668862176e+01 3 -6 0
504 2 3.7614228828689620e+00 4.2904346194594813e+00 3.2706762175762861e+01 1 -4 0
400 1 1.8538852632440317e+00 7.6501655391929546e-01 3.4877497777616846e+01 0 5 0
503 1 4.5039404512594450e+00 4.6428381642236056e+00 3.2230172516879698e+01 1 -4 0
402 2 2.0903086581956130e+00 5.8379135401365312e-01 3.3892400031062380e+01 0 5 0
251 1 6.6119314636894810e-01 1.6150340496889368e+00 3.0247877856930796e+01 5 -3 0
401 1 1.2472140861859067e+00 8.2049807643668404e-01 3.3398588759419653e+01 0 5 0
455 1 2.8227089432676031e+00 1.3712269041592466e+00 3.1083690179762492e+01 5 0 0
500 1 2.4957389167199810e+00 5.6181029867320662e+00 3.1082233426815883e+01 8 -1 0
454 1 2.6473584540953023e+00 1.7572345142228057e-01 3.0091116786322424e+01 5 0 0
321 2 5.1196806433867961e+00 1.8729328379880268e+00 3.9966906960845634e+01 7 3 0
395 1 1.0456980995137357e+00 4.8381337388994039e+00 4.1536255727177419e+01 -4 -3 0
540 2 2.9931321972192051e+00 4.3790991067678400e+00 3.8831925646614195e+01 11 -1 0
578 1 3.4438837085705103e+00 2.3522434668675851e+00 4.0912229779051991e+01 3 -6 0
330 2 2.0048449689034866e+00 1.1171730848651666e+00 3.6553707442197677e+01 4 6 0
328 1 1.8380559085475618e+00 2.0826343758611996e+00 3.6488640894145092e+01 4 6 0
595 1 1.9277318082720951e+00 3.9748704948224782e+00 3.7597824894754389e+01 8 -2 0
234 2 5.2692870260138591e-01 1.1497360858799419e+00 4.0341696944476851e+01 16 5 0
320 1 4.8904969702285133e+00 1.4722475104866553e+00 3.9073021617888493e+01 7 3 0
539 1 3.0374487899519726e+00 5.2767929587710913e+00 3.9122316764072231e+01 11 -1 0
579 2 2.5146923169091884e+00 2.7029191096434833e+00 4.1036575957455504e+01 3 -6 0
577 1 2.5750182668537347e+00 3.5733100394201989e+00 4.1670653678767898e+01 3 -6 0
538 1 2.6147845869445616e+00 3.9521410370497745e+00 3.9616200862344293e+01 11 -1 0
597 2 1.3697362704304810e+00 3.8405970753356033e+00 3.6806145915008834e+01 8 -2 0
232 1 1.2551352656744870e+00 1.7299394363329943e+00 4.0682051928445929e+01 16 5 0
396 2 1.8946047656763960e+00 5.1349073937287484e+00 4.2000453996208826e+01 -4 -3 0
306 2 4.5172998063527006e+00 5.4630768173695454e-01 3.7319736753089558e+01 5 0 0
329 1 2.9537297005831089e+00 9.2394331919406503e-01 3.6813063694246686e+01 4 6 0
305 1 5.4616532596485623e+00 7.6537038108595656e-01 3.6931927774253033e+01 5 0 0
557 1 5.6056217719368329e+00 2.7057099977258652e+00 3.9701361479128551e+01 7 2 0
596 1 1.9005834384634075e+00 4.3681127280581391e+00 3.6223158193015202e+01 8 -2 0
233 1 1.9559799405286071e-02 1.8661739928290113e+00 3.9865351013277305e+01 16 5 0
177 2 3.8230290742318056e+00 1.1198435841069863e+00 4.7405800547010813e+01 0 1 -1
369 2 9.5960553172199925e-01 5.0026371613731344e+00 4.7705052822956183e+01 0 1 0
478 1 6.5694839735637911e-01 3.5939860696306121e+00 4.6239087912858622e+01 4 -5 0
293 1 1.0619771633579513e+00 5.4079515544468859e-01 4.7222653280280198e+01 0 1 0
367 1 1.9867153755509730e+00 5.0336512245666301e+00 4.7692503073173100e+01 0 1 0
349 1 2.2236095715731627e+00 1.6195722296732651e-01 4.3550357270657308e+01 5 -10 0
294 2 1.2731975920860925e+00 1.1196967490426264e+00 4.8072574747313681e+01 0 1 0
81 2 5.1311587831770984e+00 2.9789773881971833e+00 4.2725658743880352e+01 12 -3 -1
201 2 3.5556102098273299e+00 4.8284008365741578e+00 4.7485283787456289e+01 0 1 -1
486 2 2.9214607346044841e+00 1.9961628526028039e+00 4.4309802890015568e+01 -8 4 0
241 1 4.9677031949844235e+00 9.9765552870905072e-01 4.6286555917261026e+01 1 1 0
332 1 2.8494885470479074e+00 1.2340902963978713e+00 4.7551122714915188e+01 5 2 0
484 1 3.1901012376718669e+00 2.0063312688995789e+00 4.5294778875177826e+01 -8 4 0
568 1 5.1246036708005667e+00 3.9621027691846562e+00 4.2431527140288217e+01 12 -2 0
319 1 3.2774148689724636e+00 3.8805310001765130e+00 4.7437675144956884e+01 0 1 0
243 2 5.5944402986486326e+00 4.6465877835513597e-01 4.5716289798911689e+01 1 1 0
485 1 3.6349277772623201e+00 2.3993952926687676e+00 4.3690346018476788e+01 -8 4 0
480 2 3.2736084957687656e-01 3.4121537711223362e+00 4.5329606942798620e+01 4 -5 0
479 1 1.0792763116541157e+00 3.1380215655273656e+00 4.4811489540641666e+01 4 -5 0
394 1 1.4713069721077556e+00 5.7040449336706676e+00 4.2708834337901031e+01 -4 -3 0
253 1 4.5355708047766923e+00 5.6633686137192036e+00 4.6162590287209831e+01 5 3 0
266 1 5.3940687685428479e+00 5.6009142826251344e+00 4.3732212093988174e+01 8 -6 0
53 2 4.0110903455621356e+00 6.6004175684813751e+00 4.0295547923508961e+00 -1 1 0
55 2 3.8029328994041238e+00 6.6443051027892395e+00 9.0510969396989001e-03 -1 1 0
155 2 2.2617260540824136e+00 8.5928150125141762e+00 4.9672724707599656e+00 0 0 0
151 2 2.2913066675556454e-01 1.0621095272082620e+01 3.1939155466087937e-01 0 0 0
152 2 1.0614846743366224e-01 8.6655083179731509e+00 1.7787518939247529e+00 0 0 0
145 3 2.8664837345074456e-01 1.0675525309661582e+01 2.2397259174721200e+00 0 0 0
2 3 3.6950241832368524e+00 8.5664322961771351e+00 -5.7778553047464998e-01 -1 0 0
148 3 2.1886019364130345e+00 1.0524279748553356e+01 4.5846202885506600e+00 0 0 0
49 3 4.0658572273316151e+00 6.7268384577469611e+00 1.9716432252217198e+00 -1 1 0
196 3 2.2107227133037224e+00 6.6046033286426882e+00 4.5430929248928180e+00 0 1 0
150 2 2.1093407004962597e+00 1.0388052885485505e+01 2.5190781670664495e+00 0 0 0
153 2 1.9142566103421013e+00 8.8091901015121561e+00 -8.9470530791349889e-01 0 0 0
149 2 2.9689547369612895e-01 1.0505670251368450e+01 4.3273147927758515e+00 0 0 0
1 3 4.1136226470706863e+00 1.0524080963428620e+01 1.9730165280112053e+00 -1 0 0
197 2 3.5705897195598030e-01 6.8265242425692749e+00 4.1487488461981377e+00 0 1 0
193 3 3.4616395171972908e-01 6.7799515357072169e+00 2.2472075511131742e+00 0 1 0
7 2 4.1804834856882565e+00 1.0486482763379746e+01 -1.3444681209704193e-01 -1 0 0
5 2 4.0625271823325217e+00 1.0432662484564682e+01 3.9986426010985952e+00 -1 0 0
8 2 3.9164760675085506e+00 8.5956171129008538e+00 1.3535181340482527e+00 -1 0 0
198 2 2.1802804788521173e+00 6.7416245477179277e+00 2.5291470443338326e+00 0 1 0
146 3 2.6941128555559646e-01 8.5722858738914969e+00 -1.4259366001509508e-01 0 0 0
199 2 5.2639214804407064e-01 6.6836111184787077e+00 6.9989912441692406e-02 0 1 0
204 2 2.1920205304500908e+00 6.6368829477678331e+00 6.5264914487459551e+00 0 1 0
165 2 2.0852725028373498e+00 8.6572012613240723e+00 8.9967392130189499e+00 0 0 0
158 3 2.9828813359545053e-01 8.7115539200970300e+00 9.4345096623166462e+00 0 0 0
211 2 1.6996631328647807e-01 6.7772294116965437e+00 9.7624373301343894e+00 0 1 0
154 2 2.5606532168871626e-01 8.7319458363326667e+00 7.4506458998693477e+00 0 0 0
156 2 2.1136163340536389e+00 1.0545127993973372e+01 6.5676346155663774e+00 0 0 0
147 3 1.9747950352294357e+00 8.6810828292333078e+00 6.8848086532696762e+00 0 0 0
67 2 4.0022394427468049e+00 6.7023816124708757e+00 9.7430723464188045e+00 -1 1 0
10 2 3.9044830798562975e+00 8.7212245747370414e+00 7.3702643383118183e+00 -1 0 0
14 3 4.0047627977206881e+00 8.6105019943647303e+00 9.3778612272819313e+00 -1 0 0
19 2 4.1965777492504976e+00 1.0455071895870656e+01 9.7969290506549545e+00 -1 0 0
163 2 2.0436471666565645e-01 1.0661917557084726e+01 9.8455276907953468e+00 0 0 0
160 3 2.1609363861724717e+00 1.0386423883705699e+01 1.4275041442774681e+01 0 0 0
162 2 2.1090078741612581e+00 1.0725178761349683e+01 1.2201376459551113e+01 0 0 0
205 3 1.5681938497007533e-01 6.7395920110022907e+00 1.1753880699469130e+01 0 1 0
157 3 1.5002186301628603e-01 1.0574679762435578e+01 1.1848915558566709e+01 0 0 0
167 2 2.0088807239248792e+00 8.5427435720157607e+00 1.4664211127479621e+01 0 0 0
159 3 2.4734428085302742e+00 8.5579603761440008e+00 1.6618595336818661e+01 0 0 0
168 2 2.0196143004877900e+00 1.0479691005502655e+01 1.6173652127608378e+01 0 0 0
61 3 3.9694757622987336e+00 6.7044395874548428e+00 1.1854074795483582e+01 -1 1 0
161 2 2.0030608287208057e-01 1.0471755327648673e+01 1.3834265809647606e+01 0 0 0
65 2 3.9935873840717062e+00 6.8120869687059180e+00 1.3845952962612214e+01 -1 1 0
216 2 2.2964115822441626e+00 6.6032022993473873e+00 1.6182859918222661e+01 0 1 0
209 2 1.8705419959593686e-01 6.8599975270159357e+00 1.3798152179539917e+01 0 1 0
208 3 2.0703427274317856e+00 6.6690392899478859e+00 1.4194857089784232e+01 0 1 0
13 3 3.9183670758321094e+00 1.0544831502949961e+01 1.1699634900388899e+01 -1 0 0
210 2 2.0918100642023401e+00 6.5383896401730492e+00 1.2136737600530967e+01 0 1 0
17 2 3.9472229058697130e+00 1.0286564975434528e+01 1.3912523687481295e+01 -1 0 0
22 2 4.1085305991591143e+00 8.7122095351988786e+00 1.7031972878571089e+01 -1 0 0
164 2 1.5151421951599711e-01 8.6268045430987392e+00 1.1390239108905735e+01 0 0 0
20 2 3.8167470903988150e+00 8.5065316856042319e+00 1.1402373757783423e+01 -1 0 0
458 1 4.4882117901571350e+00 8.9508886894056694e+00 2.1521926687181988e+01 4 -1 0
459 2 4.6396448439872469e+00 9.5924584303675307e+00 2.0778097215723371e+01 4 -1 0
443 1 2.0946416533851879e+00 5.8282668665872510e+00 1.9379545192305855e+01 2 3 0
262 1 3.0323336406680839e+00 1.0403620661186389e+01 2.0647448884807467e+01 -6 7 0
166 2 1.5519346017940383e+00 8.5127637558557083e+00 1.8197847954068273e+01 0 0 0
299 1 3.3622516485593184e+00 7.0027207176150030e+00 2.2814179161275518e+01 0 -11 0
444 2 1.8164004805713359e+00 6.5515365149512075e+00 2.0027692557335175e+01 2 3 0
374 1 5.4693896879306569e+00 5.9012237623648200e+00 1.8575395865463012e+01 0 1 0
598 1 1.8322463298841827e+00 7.8139471410872980e+00 1.8819424432451363e+01 0 1 0
300 2 3.7662236814876460e+00 7.1731767641295843e+00 2.1943179733194366e+01 0 -11 0
264 2 2.1464743436890723e+00 1.0544513138818241e+01 2.0229124101057401e+01 -6 7 0
298 1 4.5016842661143555e+00 6.5061190683238950e+00 2.1938128984208227e+01 0 -11 0
442 1 2.3907516219605083e+00 6.6273942625020812e+00 2.0825148371739402e+01 2 3 0
457 1 5.4511631336856308e+00 1.0167209804222654e+01 2.0995155367427635e+01 4 -1 0
263 1 2.0005724324626950e+00 9.8086262640457704e+00 1.9584806834971431e+01 -6 7 0
506 1 6.7659312006558470e-01 9.9183803419584819e+00 2.1712954259040337e+01 -12 -4 0
269 1 5.3916207413576984e+00 8.5258661144692720e+00 1.9361725087857682e+01 -6 2 0
227 1 4.7952478475415843e+00 1.1391932315863702e+01 2.3616572295915031e+01 -7 -2 0
448 1 1.2847718102538368e+00 6.5710795937600937e+00 2.3422011280960316e+01 2 -1 0
512 1 5.5641131980135228e-01 8.6253625365708988e+00 2.6901386994801868e+01 0 0 0
546 2 5.1658302685147675e+00 5.7738444931817030e+00 2.7194343858024805e+01 -7 -8 0
226 1 4.7453249580083181e+00 1.0307233149363762e+01 2.4790492575054550e+01 -7 -2 0
581 1 2.3229348835016408e+00 6.0539046307635678e+00 2.5397085475405127e+01 4 -3 0
582 2 2.5495055617672397e+00 6.2444619774331684e+00 2.6412927656025797e+01 4 -3 0
327 2 5.6278080659056604e+00 1.0310621639479644e+01 2.8047443574347461e+01 -5 5 0
326 1 4.7111171364952620e+00 1.0345747211895450e+01 2.7779479067204278e+01 -5 5 0
440 1 2.6290819061120856e+00 9.6404322951182575e+00 2.9010097591412674e+01 -1 -5 0
513 2 1.4675330071641306e+00 8.6563620198097446e+00 2.6541007618733168e+01 0 0 0
545 1 4.2951852004460402e+00 5.8946213479293377e+00 2.6735970442828808e+01 -7 -8 0
439 1 2.2172011558232483e+00 1.0173746915235435e+01 2.7586436395241201e+01 -1 -5 0
544 1 5.3064241439600952e+00 6.4885111610102548e+00 2.7909608659245180e+01 -7 -8 0
511 1 1.3320111756115409e+00 8.7191494221326984e+00 2.5535285357929698e+01 0 0 0
580 1 2.2531269125531903e+00 7.1898218347401235e+00 2.6517522855542090e+01 4 -3 0
441 2 2.8535872610803121e+00 1.0398139665063578e+01 2.8395430194726131e+01 -1 -5 0
450 2 1.9669855916103349e+00 5.9803966526770660e+00 2.3774744041794346e+01 2 -1 0
228 2 4.1438375125722402e+00 1.0750635206900917e+01 2.4096523905762428e+01 -7 -2 0
508 1 1.1116059925239072e+00 9.5352332463968725e+00 2.3931966482855898e+01 2 -1 0
509 1 2.6156053439079163e+00 9.6821264669799660e+00 2.3828249295762756e+01 2 -1 0
510 2 1.8837153411151255e+00 9.0105759360844218e+00 2.3677873225305472e+01 2 -1 0
338 1 5.0052771660198747e+00 1.0090403378581039e+01 3.2974947642682160e+01 3 -10 0
490 1 3.1110755738483302e+00 9.0671291680335724e+00 3.4163156630330562e+01 11 0 0
501 2 1.9895178713751196e+00 6.3250485999527628e+00 3.0634008988499758e+01 8 -1 0
365 1 6.2020775457090549e-01 7.5204708279335897e+00 3.1805515833070544e+01 -1 -4 0
426 2 3.3259008954398417e+00 8.9673971453784258e+00 3.0579874170004135e+01 9 1 0
424 1 3.3392387427154260e+00 9.1367926739990821e+00 3.1569063673583457e+01 9 1 0
491 1 2.6618325342375080e+00 1.0350845453313665e+01 3.3360377053068795e+01 11 0 0
425 1 2.9798880479337786e+00 8.0238638052317732e+00 3.0480590217180339e+01 9 1 0
492 2 3.2156018302786653e+00 9.5249652025661078e+00 3.3209416704567126e+01 11 0 0
387 2 2.7211010432412035e+00 7.8026176540176619e+00 3.5659744084560835e+01 2 -3 0
385 1 2.9710624700556361e+00 6.8457881567988270e+00 3.5630508119265777e+01 2 -3 0
353 1 9.4829420134314890e-01 7.4557693830244425e+00 3.5968465959928956e+01 -2 -5 0
499 1 1.0637523587104019e+00 5.9168252209291374e+00 3.0465213604672027e+01 8 -1 0
461 1 2.9312775127913278e+00 1.0141600388385360e+01 4.1690607273475827e+01 0 0 0
323 1 8.1627322991978701e-01 9.0320455582437962e+00 3.8910298282752876e+01 3 -8 0
309 2 4.7368584870911512e+00 8.9807809269293646e+00 3.7241831929664549e+01 1 0 0
238 1 2.3939817814060418e+00 7.5710134683427945e+00 4.0185357046870010e+01 8 1 0
462 2 3.7640574193743017e+00 9.7745819942870185e+00 4.1337283493170318e+01 0 0 0
393 2 5.6701380629560010e+00 7.3772857757071630e+00 3.9463962399533351e+01 -1 -9 0
307 1 4.8358776777779511e+00 8.4683121299547039e+00 3.8089662127680185e+01 1 0 0
562 1 1.3388274724899061e+00 1.1220481515066625e+01 3.7517487659105768e+01 -1 -2 0
460 1 3.7070641986139021e+00 9.5921947446506159e+00 4.0431704597986375e+01 0 0 0
391 1 4.9319601933920882e+00 6.8887901314841624e+00 4.0010127202857376e+01 -1 -9 0
564 2 8.9537484544333723e-01 1.0678559988245988e+01 3.8219849451225976e+01 -1 -2 0
304 1 4.4539999690377199e+00 1.0976681819245425e+01 3.7306362344299416e+01 5 -1 0
240 2 3.1184011085822156e+00 6.8674345280913256e+00 4.0401104163781945e+01 8 1 0
386 1 3.1917000797926232e+00 8.1736114286444668e+00 3.6435095728612950e+01 2 -3 0
324 2 6.2784527120242950e-01 8.4182947749832788e+00 3.9663845377639539e+01 3 -8 0
239 1 2.5827999070903851e+00 6.2268790433706842e+00 4.0968267499026695e+01 8 1 0
308 1 5.5842569001939975e+00 8.9768324157179045e+00 3.6768504512759840e+01 1 0 0
563 1 7.8105392229825421e-01 1.1341512446556738e+01 3.8929257759823898e+01 -1 -2 0
322 1 4.5188759555458091e-02 8.6555585172154981e+00 4.0383189778905916e+01 3 -8 0
257 1 4.1794989735851980e+00 8.4341352191531733e+00 4.3952095766799289e+01 6 4 0
555 2 2.2268716167139144e-01 1.1363589038808515e+01 4.5795293762530633e+01 2 -5 0
285 2 1.2828321785285730e+00 6.9989759990863378e+00 4.3679486806096897e+01 -8 -7 0
280 1 3.9941738326481526e+00 9.3866054768076594e+00 4.5868661510468520e+01 1 -6 0
258 2 3.9976109164309102e+00 7.8582116870437364e+00 4.3192304132584468e+01 6 4 0
423 2 8.2728311716589664e-01 7.3557053336299623e+00 4.6538188002249214e+01 8 -6 0
422 1 1.2050313032487177e+00 7.9020393639377726e+00 4.7156371498583859e+01 8 -6 0
254 1 4.9259934122469398e+00 7.1446361145125010e+00 4.5652296598565236e+01 5 3 0
288 2 4.6589887581215237e+00 8.5286167377695996e+00 4.7573755894701065e+01 3 -5 0
265 1 4.7818226001831547e+00 6.4939080504494227e+00 4.2754955498909681e+01 8 -6 0
283 1 2.2511078020197841e+00 7.3564596965795870e+00 4.3607335867196795e+01 -8 -7 0
282 2 4.0375933350071858e+00 9.7816714367570015e+00 4.5012165468540481e+01 1 -6 0
350 1 2.6863284452577232e+00 1.0247946024007183e+01 4.4207518448784590e+01 5 -11 0
281 1 4.6394063398628216e+00 1.0532383503775929e+01 4.5243921703544949e+01 1 -6 0
421 1 7.8109868971865504e-01 6.4461072437618574e+00 4.6828838014562876e+01 8 -6 0
284 1 1.0901085186158810e+00 7.1246127822246930e+00 4.4673571583525671e+01 -8 -7 0
351 2 2.0214369572575053e+00 1.0627599783044195e+01 4.3545986972515259e+01 5 -11 0
256 1 4.1042730848235980e+00 8.4856016261143363e+00 4.2461138244753315e+01 6 4 0
287 1 5.6974817227173800e+00 8.7471690089089709e+00 4.7451160005868999e+01 3 -5 0
255 2 5.1818147756096051e+00 6.1882025318196421e+00 4.5613671611206144e+01 5 3 0
267 2 5.5613964266069731e+00 5.8737784011705552e+00 4.2812583104770333e+01 8 -6 0
548 1 4.9832628708404736e-01 1.0824724911569945e+01 4.2918306387423769e+01 6 -4 0
554 1 8.8332400923914778e-01 1.1341416056615744e+01 4.5044095542461399e+01 2 -5 0
122 3 7.9346741883527541e+00 4.7853151481371192e+00 -3.8756978933613517e-01 -1 1 0
35 2 6.1386599660438268e+00 1.0314312382965396e+00 4.8187058790699746e+00 -1 1 0
100 3 9.8144240027311227e+00 2.9201332219448051e+00 4.5817510524116214e+00 -1 1 0
98 3 7.8683055695937218e+00 9.9354821024548379e-01 -2.7597262674504730e-01 -1 1 0
28 3 5.8764299414947194e+00 3.0227076191616180e+00 4.4221893664662186e+00 -1 1 0
97 3 7.9787667428672471e+00 2.8854432280215487e+00 2.1833491493857737e+00 -1 1 0
30 2 5.8386820272278150e+00 2.8145262282059402e+00 2.5383468296846332e+00 -1 1 0
101 2 7.8840765167124438e+00 3.0141001758159067e+00 4.0994010599633395e+00 -1 1 0
33 2 6.0735645170422581e+00 1.1893246312278165e+00 -5.9890144535307888e-01 -1 1 0
128 2 7.7395114777405674e+00 4.9096246524385458e+00 1.6643932235694372e+00 -1 1 0
104 2 7.9133193976136438e+00 1.0193542380734690e+00 1.7136299627540641e+00 -1 1 0
103 2 7.9757555373731703e+00 2.9233326077984678e+00 1.0479342470317903e-01 -1 1 0
102 2 9.7682075402417858e+00 3.0153084525356926e+00 2.5351979503429267e+00 -1 1 0
57 2 6.1382774117413161e+00 4.6256996884179653e+00 -6.9148629989993815e-01 -1 1 0
129 2 9.7602615225111311e+00 4.5776531397141946e+00 -8.3343114261587026e-01 -1 1 0
105 2 9.8515861750097713e+00 1.1533384641015183e+00 -6.8755125465052080e-01 -1 1 0
131 2 9.6985059775860272e+00 4.8474356751627958e+00 4.8796195192054075e+00 -1 1 0
59 2 5.9986806067863343e+00 4.8498340840560203e+00 4.8375041236174106e+00 -1 1 0
134 3 7.9470683569086518e+00 4.8214943763834750e+00 9.3430946959087748e+00 -1 1 0
69 2 5.9566327262724315e+00 4.7205570128962107e+00 8.9394150898694917e+00 -1 1 0
51 3 5.9273755196272520e+00 4.7270680438199593e+00 6.9308769817346674e+00 -1 1 0
123 3 9.7411201539146770e+00 4.9050324492165656e+00 6.9113890159145370e+00 -1 1 0
27 3 5.9793687053939770e+00 1.0284342627621066e+00 6.8691223645045678e+00 -1 1 0
117 2 9.7253246645181104e+00 1.0969166716823320e+00 8.9660094876733734e+00 -1 1 0
130 2 7.8158138292436874e+00 4.9003140878258806e+00 7.3114924036440136e+00 -1 1 0
115 2 7.8533385037072474e+00 2.9622155892782440e+00 9.8356069087964446e+00 -1 1 0
108 2 9.8056422147482003e+00 3.0049156118467799e+00 6.5309696788669900e+00 -1 1 0
45 2 5.9159040670713150e+00 9.9906226455213121e-01 8.9480915901833722e+00 -1 1 0
99 3 9.7131192610619976e+00 1.1325683890299330e+00 7.0151552670571196e+00 -1 1 0
141 2 9.7686082858984413e+00 4.7562983326996440e+00 8.8604766369139405e+00 -1 1 0
106 2 7.7790629382630216e+00 1.1596247593073161e+00 7.2921445987566678e+00 -1 1 0
110 3 7.7689955202538705e+00 9.5223176694970191e-01 9.3854093528509068e+00 -1 1 0
36 2 6.0295072156162597e+00 2.8900025922485013e+00 6.4236882188594464e+00 -1 1 0
107 2 9.5160412942682608e+00 1.0855214795270871e+00 5.0286271496851613e+00 -1 1 0
40 3 5.8946808209233197e+00 2.8753407930458348e+00 1.4223278390768662e+01 -1 1 0
143 2 9.6634961568820934e+00 4.8196012302083933e+00 1.4529543630370455e+01 -1 1 0
113 2 7.8249155381953068e+00 2.9880228920473106e+00 1.3829437981887473e+01 -1 1 0
109 3 7.8024602974186008e+00 2.9008063965426722e+00 1.1738820708102923e+01 -1 1 0
63 3 6.1488730056806524e+00 4.9089095488891132e+00 1.6605993739358965e+01 -1 1 0
42 2 5.9230070599125382e+00 2.9267384105408598e+00 1.2196152642448181e+01 -1 1 0
47 2 5.7958121820890973e+00 1.0477795166292563e+00 1.4601242442390364e+01 -1 1 0
142 2 7.8748059346153765e+00 4.9233342365659576e+00 1.6828209617650373e+01 -1 1 0
39 3 6.1448863178973196e+00 1.0098369704679551e+00 1.6554860957809300e+01 -1 1 0
112 3 9.7240097582286058e+00 2.8747977302965499e+00 1.4154589908546312e+01 -1 1 0
71 2 6.0324256581905837e+00 4.8750036148218747e+00 1.4612394145512102e+01 -1 1 0
119 2 9.5912155268983614e+00 9.5742268450583679e-01 1.4621044111819348e+01 -1 1 0
116 2 7.6534665550040657e+00 9.8663413571086878e-01 1.1349973167078767e+01 -1 1 0
120 2 9.8884458044412771e+00 2.8815263245115736e+00 1.6154726011221449e+01 -1 1 0
114 2 9.6653482824400463e+00 2.8039992904959794e+00 1.2240003862953925e+01 -1 1 0
135 3 9.7496679626917437e+00 4.7599537253285336e+00 1.6469212967987225e+01 -1 1 0
111 3 9.7805789481311791e+00 9.5068367339591320e-01 1.6652539206124864e+01 -1 1 0
118 2 7.9250207507991632e+00 9.7952962067720828e-01 1.6871900971162596e+01 -1 1 0
140 2 7.9563805720751768e+00 4.8030303639158296e+00 1.1379610643391000e+01 -1 1 0
48 2 5.7373824569220631e+00 3.0159755607896859e+00 1.6196640697125027e+01 -1 1 0
429 2 5.8511340940279108e+00 1.5302750392241193e+00 2.3054391263808757e+01 -4 2 0
274 1 7.7397135285709364e+00 3.5234784204258975e+00 2.0159368763967883e+01 -4 0 0
315 2 9.7301976812262332e+00 4.4962266777629747e+00 1.8538488709830084e+01 1 0 0
336 2 9.5794021361037291e+00 3.4104989346137410e-01 1.8768457465365536e+01 2 -3 0
345 2 8.5118147970210565e+00 4.4997752972335174e+00 2.1714844769283033e+01 -1 -3 0
314 1 1.0592222672498394e+01 4.2433115159171040e+00 1.9020705468009492e+01 1 0 0
275 1 7.0176113091156793e+00 2.7524690103135936e+00 1.8949816467274559e+01 -4 0 0
437 1 6.6434953638130736e+00 4.9404519876465303e-01 2.1711538358477366e+01 8 -9 0
334 1 1.0448003059878673e+01 3.9405255106131393e-01 1.9263668926384412e+01 2 -3 0
313 1 8.9664826199234113e+00 4.0351826919335840e+00 1.8991146523650308e+01 1 0 0
410 1 1.0628924835277353e+01 1.1040430123871288e+00 2.2383166723591557e+01 2 -3 0
411 2 1.0042499893084431e+01 8.2363137692892263e-01 2.3119147389672015e+01 2 -3 0
335 1 8.8802923055111922e+00 8.3086305327597731e-01 1.9343701024286908e+01 2 -3 0
276 2 7.7729964279738413e+00 2.7915296393272682e+00 1.9538881059123632e+01 -4 0 0