LAMMPS data file via write_data, version 5 Jun 2019, timestep = 1020000

546 atoms
3 atom types

0.0000000000000000e+00 1.3959816000000000e+01 xlo xhi
0.0000000000000000e+00 8.9076089999999990e+00 ylo yhi
4.4245400000000146e-01 4.3802945999999991e+01 zlo zhi

Masses

1 1
2 16
3 47.86

Atoms # atomic

150 2 2.5898334185342904e+00 2.3742899090780760e+00 4.1899588409851471e+00 2 1 0
37 3 6.3698127789884769e+00 3.7331435188405329e+00 3.3676818362235172e+00 1 1 0
46 2 4.8911550181588108e+00 3.8200056887504878e+00 4.7977305974022979e+00 1 1 0
41 2 5.3600642238362326e+00 2.2788447581391522e+00 2.5230707328459734e+00 1 1 0
145 3 1.5747244859293446e+00 3.8140579938812782e+00 3.3418555419884535e+00 2 1 0
129 2 2.9771140540231231e+00 8.4113698493470668e-01 1.8624558203581121e+00 2 1 0
149 2 5.2691239637807041e-01 2.2495478763848542e+00 2.6744926988531859e+00 2 1 0
147 2 2.8982572075718247e+00 3.8650366774331339e+00 1.9574608066880022e+00 2 1 0
38 3 4.0795373900710405e+00 2.2744403301266010e+00 1.1472518478489122e+00 1 1 0
19 3 6.2615724277798321e+00 8.3832873045586187e-01 3.2683020471538438e+00 1 1 0
127 3 1.8506640159543357e+00 7.6756583584457794e-01 3.4597060201395675e+00 2 1 0
28 2 4.6715479754450007e+00 7.8984789880322370e-01 4.7673268368510362e+00 1 1 0
136 2 2.0137394323794605e-01 8.0420255883684477e-01 4.7406955723150421e+00 2 1 0
154 2 1.5499093380504356e-01 3.8999930399741927e+00 4.8113349811017869e+00 2 1 0
44 3 4.0712338079536465e+00 2.2132421081602369e+00 5.7243338603410709e+00 1 1 0
155 2 7.2511955589000898e-01 2.3865852158315177e+00 7.1037944397074755e+00 2 1 0
52 2 4.8329871029770484e+00 3.8644045598752168e+00 9.4693037135324580e+00 1 1 0
47 2 5.3876717230516054e+00 2.3539514711655940e+00 7.0966596187225894e+00 1 1 0
43 3 6.2511964429778644e+00 3.8968592184857442e+00 7.9367840693301153e+00 1 1 0
153 2 3.0019278817341002e+00 3.7476531620462592e+00 6.5678489990480333e+00 2 1 0
151 3 1.6829141767069524e+00 3.8205369657351000e+00 8.0983897905835942e+00 2 1 0
34 2 4.7527544373617738e+00 7.7774108861462066e-01 9.3385617667738181e+00 1 1 0
156 2 2.4943724219042731e+00 2.2861027204839064e+00 8.8973373820285939e+00 2 1 0
50 3 4.0594136588794525e+00 2.3472166318740197e+00 1.0278208266247034e+01 1 1 0
135 2 3.0425964012748095e+00 8.0677863012373985e-01 6.6292498398121156e+00 2 1 0
133 3 1.5054155002787406e+00 7.7982743918246755e-01 7.9633274301530790e+00 2 1 0
25 3 6.3304904484365849e+00 8.5804741971099274e-01 8.1429544284730273e+00 1 1 0
160 2 2.3547509468393441e-01 3.7848737949504723e+00 9.6588586654716213e+00 2 1 0
142 2 2.3650115329066490e-01 8.7853471128971683e-01 9.4728436256995305e+00 2 1 0
159 2 2.8455411259215833e+00 3.7864943682343091e+00 1.1273510449432464e+01 2 1 0
141 2 2.8647968078456105e+00 8.7944448498652017e-01 1.1272599902825519e+01 2 1 0
230 1 5.6913315688554746e+00 2.7570424075469652e-01 1.5547734083898904e+01 0 -9 0
157 3 1.6466432426333242e+00 3.8903593436080208e+00 1.2689272110751574e+01 2 1 0
180 2 4.7556296425184188e+00 8.4360744850240954e-01 1.4186093502426949e+01 2 1 0
465 2 4.7730216747848191e+00 3.7422207348506875e+00 1.4155408237496793e+01 1 1 0
337 1 1.2030655505439747e+00 2.4835747555044987e-01 1.5943875807099779e+01 1 7 0
178 1 4.4080353713531180e+00 1.7413927770619508e+00 1.4238948489050886e+01 2 1 0
249 2 2.2175378895511622e+00 2.8995195061243471e+00 1.6496463167683981e+01 -1 -7 0
49 3 6.3705729920809899e+00 3.7059976272603521e+00 1.2621354999310508e+01 1 1 0
53 2 5.2432378766778056e+00 2.4031863771182889e+00 1.1688044829636905e+01 1 1 0
161 2 4.9128294555447471e-01 2.0799622595852445e+00 1.1871304812053376e+01 2 1 0
31 3 6.2718667123153429e+00 7.1784512637530917e-01 1.2613557092882765e+01 1 1 0
162 2 2.2501339587121012e+00 2.4361387026623906e+00 1.3750378613224473e+01 2 1 0
179 1 3.9457603530170213e+00 1.7227759687604710e-01 1.4000572677064154e+01 2 1 0
139 3 1.7669904204727451e+00 9.0622794132472018e-01 1.2845320906351899e+01 2 1 0
419 1 4.9161628073119132e+00 4.1003937511066848e+00 1.5051320158430290e+01 3 -5 0
498 2 5.6494965360339826e+00 1.3986864018239738e-02 1.6522511557988079e+01 -5 4 0
247 1 2.4164189107613696e+00 2.9090597584795592e+00 1.5534716130530319e+01 -1 -7 0
183 2 3.4003116724607305e-02 4.0073948444126684e+00 1.4271081202968476e+01 1 -2 0
54 2 6.9373673149989239e+00 2.3202843841190255e+00 1.3596591547671119e+01 1 1 0
513 2 1.8444541156632649e-01 9.2924372219407980e-01 1.4375062909386846e+01 0 -1 0
464 1 4.0203385642448541e+00 4.2762194166007728e+00 1.3877321684240565e+01 1 1 0
333 2 1.0313681127028904e+00 3.9266179538351649e+00 1.9235331676463872e+01 -4 -12 0
308 1 3.8829581161274045e+00 1.5810605683067063e+00 1.8286289528206773e+01 -7 3 0
309 2 4.5839305333535059e+00 2.1497231548128450e+00 1.7884091000837849e+01 -7 3 0
332 1 1.8564295827542288e+00 4.3827499843858977e+00 1.9635475566856194e+01 -4 -12 0
331 1 1.3304495228096200e+00 3.5339550890589471e+00 1.8408131953770368e+01 -4 -12 0
280 1 3.2419264346391659e+00 1.1921281792620925e-01 2.0209413210438598e+01 -1 -8 0
307 1 5.0023402320407095e+00 1.4613469592168260e+00 1.7339777436285644e+01 -7 3 0
282 2 2.8044973735912788e+00 9.4507483404801496e-01 1.9717454172246885e+01 -1 -8 0
403 1 5.3997787009491569e+00 2.3765543257336996e+00 1.9441063193061748e+01 -4 -13 0
281 1 2.8663913562503476e+00 1.6654323074203397e+00 2.0338912993154615e+01 -1 -8 0
248 1 3.1221087542899113e+00 2.8587164976528947e+00 1.6935843406600771e+01 -1 -7 0
382 1 5.9888340629262489e+00 1.1576282042959545e+00 2.1548228882079385e+01 -3 3 0
339 2 1.6512383483174602e+00 3.5386042592561645e-01 1.6827207067464276e+01 1 7 0
404 1 6.4874144129845757e+00 3.0762315165314047e+00 2.0247887671542710e+01 -4 -13 0
405 2 5.7013340408569206e+00 2.5147374102367857e+00 2.0372856369822784e+01 -4 -13 0
319 1 5.8438249341633441e-01 2.9466347056930293e+00 2.1612466977627292e+01 0 -9 0
323 1 3.1368059964902500e-01 7.0920741007745836e-01 1.7855447607445875e+01 -4 3 0
242 1 4.7885895341598879e+00 3.8560978390400522e+00 2.1779947691460507e+01 -10 -15 0
338 1 2.0467852711954104e+00 1.3354506176276175e+00 1.6816463845397632e+01 1 7 0
407 1 5.2311584499032833e+00 2.4218751185197123e+00 2.5537394970845526e+01 -3 -7 0
383 1 6.5003317315782105e+00 1.1148348263663832e+00 2.3027480125940244e+01 -3 3 0
406 1 4.0868600219731341e+00 1.9853383413612660e+00 2.4587390154654415e+01 -3 -7 0
470 1 5.2528584929314279e+00 3.7965488118767472e+00 2.3226482163405823e+01 -4 -11 0
336 2 2.3700827671888827e+00 1.1956118219140723e+00 2.4835800390139482e+01 -1 4 0
408 2 4.7225772008876019e+00 2.7456812843434024e+00 2.4783119014699174e+01 -3 -7 0
479 1 1.4688957873933655e+00 3.4829194777308907e+00 2.6933084015194815e+01 -6 -4 0
495 2 6.5467802293811728e+00 2.1641200410896722e+00 2.7027888389652290e+01 -5 -7 0
334 1 1.9954913047221243e+00 1.5247727562469449e+00 2.4017329976764458e+01 -1 4 0
163 1 3.7925102894703180e+00 4.3408911644246411e+00 2.5180309085570972e+01 0 1 0
335 1 2.3627764776730955e+00 1.0761780329707563e-01 2.4775753625823597e+01 -1 4 0
243 2 4.9379870531516321e+00 4.4081582365417580e+00 2.2594608412813407e+01 -10 -15 0
294 2 4.4977567931064955e-01 2.1489643566356538e+00 2.2152176236939848e+01 -4 -18 0
384 2 6.2157047582859049e+00 5.4886792682854513e-01 2.2271966231589307e+01 -3 3 0
201 2 6.0083903690528810e+00 2.4656544330144694e+00 3.1533884966619915e+01 -4 4 0
360 2 2.6282891384808837e+00 1.2791962649590987e+00 2.9191676894614943e+01 -6 -1 0
478 1 1.6410133930802535e+00 4.4358894463828857e+00 2.8036544857405730e+01 -6 -4 0
358 1 2.0823688025426450e+00 1.8752545507040059e+00 2.8588160199355979e+01 -6 -1 0
202 1 4.8878812360498074e+00 1.4806690958015398e+00 3.2470426576667329e+01 0 3 0
480 2 1.1464764177362055e+00 3.5833706987270908e+00 2.7876193012928397e+01 -6 -4 0
200 1 5.7923765141355927e+00 3.3795661524371319e+00 3.1220400250385737e+01 -4 4 0
173 1 6.8828162497439545e+00 2.4778572966716039e+00 3.2018728149116839e+01 -3 -6 0
409 1 5.4721106965874267e+00 1.4399653796194207e+00 3.0167520678461987e+01 -6 10 0
321 2 5.4142592041523994e+00 9.9634225260597820e-01 2.9311539053822155e+01 -2 -6 0
204 2 4.3684172129363930e+00 7.8069812647427828e-01 3.2894376701156141e+01 0 3 0
320 1 4.5190608851810214e+00 1.1604809684046968e+00 2.8999518803614269e+01 -2 -6 0
188 1 2.0090655631571619e+00 9.9478617264709723e-01 2.9921698811543180e+01 -2 -2 0
494 1 6.2477010224104905e+00 1.7189328788147373e+00 2.7877928788793952e+01 -5 -7 0
457 1 1.0536415071452916e-01 6.6058126947992082e-02 3.1340739304942371e+01 -9 -6 0
223 1 1.3634748587421497e+00 3.0254352960638293e+00 3.2899464793403581e+01 -3 -4 0
532 1 4.8076815468259122e+00 4.9726629140607564e-01 3.6175953445824568e+01 -4 2 0
297 2 4.9922771859648165e+00 4.0400316218288728e+00 3.4571905902275425e+01 0 4 0
534 2 5.4932061286048928e+00 4.8794336240179120e-01 3.5466206431432703e+01 -4 2 0
483 2 3.0414542633819992e+00 1.7250500797537247e+00 3.5559162396052045e+01 -2 -2 0
410 1 6.5381202931684446e-01 1.5827995760966171e+00 3.3242488106869402e+01 -3 8 0
533 1 5.0412340583261548e+00 4.6800241077001847e-01 3.4461276491997360e+01 -4 2 0
304 1 2.6905304850636043e+00 3.0229716010310548e+00 3.6812292346185323e+01 -2 -1 0
265 1 6.4608404924781615e-01 4.1892705296725996e+00 3.6682293273798841e+01 -1 6 0
481 1 3.5973241617604303e+00 2.4471469502855845e+00 3.5204400281518801e+01 -2 -2 0
432 2 4.9103028738861108e+00 1.3105825357381959e+00 3.8056672312468059e+01 0 3 0
385 1 2.6795906685065405e+00 6.0295384685533726e-01 3.7720587826346062e+01 1 -4 0
411 2 1.4157155115176749e+00 2.1668859526919269e+00 3.3356292209875186e+01 -3 8 0
296 1 5.9012769086739363e+00 4.1345362136942985e+00 3.4213481008673192e+01 0 4 0
482 1 2.2539620353273233e+00 1.9820775078747996e+00 3.4952124013046351e+01 -2 -2 0
195 2 2.4220517979061222e+00 3.7885568218052725e+00 3.7369878268951148e+01 -2 -2 0
431 1 5.6659070842688157e+00 1.9205265648387637e+00 3.8201635904936104e+01 0 3 0
194 1 3.1397211746402443e+00 4.4369569028676565e+00 3.7142434334625420e+01 -2 -1 0
203 1 3.4769018670036171e+00 1.2605027464293430e+00 3.3153556833168089e+01 0 3 0
508 1 6.5231330984495681e+00 2.3787552403554124e-01 4.3194282677873360e+01 2 -1 0
275 1 2.5841732957546162e+00 2.8806695803535138e+00 3.9100807343774449e+01 -3 -7 0
172 1 3.3295266174653189e+00 7.0777023170442588e-01 4.0313517359221578e+01 -6 -8 0
211 1 4.7122442852434308e+00 4.0529910574246936e-01 4.0989454792249283e+01 -9 -1 0
291 2 6.2226769137179208e+00 4.0666326712146752e+00 3.8787963331530896e+01 -6 0 0
381 2 2.4986568463845802e+00 2.2996436029245486e+00 4.2953724549626713e+01 1 1 0
40 2 4.6492744712534000e+00 3.7704555512405027e+00 4.3504042516820832e+01 1 1 -1
379 1 1.9383490236663579e+00 3.1219275012274177e+00 4.3061780938945979e+01 1 1 0
415 1 6.4142321922810153e+00 2.0504345756590157e+00 4.2867798214218887e+01 1 1 0
380 1 1.8083176914306016e+00 1.6463593857050736e+00 4.3046097462975588e+01 1 1 0
274 1 1.9690296120718966e+00 3.0420765778430381e+00 4.0556652150942121e+01 -3 -7 0
430 1 4.8991380134675211e+00 7.7820365231906952e-01 3.8896860102605345e+01 0 3 0
276 2 2.5027843005266996e+00 2.4491647970613113e+00 3.9986840454915040e+01 -3 -7 0
317 1 4.9417861226144613e+00 3.3068154997278771e+00 4.1617788711327094e+01 -1 -4 0
22 2 4.7863028333038207e+00 8.0485792744308027e-01 4.3617353161158690e+01 1 1 -1
316 1 4.1971660014417731e+00 2.7025807840624783e+00 4.0408099458354421e+01 -1 -4 0
318 2 5.0863917003503705e+00 2.8414673754870226e+00 4.0755818725970684e+01 -1 -4 0
148 2 1.2744087177677062e-02 3.7151582059184474e+00 4.3495047392256282e+01 2 1 -1
290 1 5.6988142567855284e+00 3.7708407841664826e+00 3.9623948159127956e+01 -6 0 0
130 2 6.4006976565583167e-03 8.6457976816719062e-01 4.3514723667607939e+01 2 1 -1
171 2 9.9764625796726070e-02 3.7958241483296340e+00 4.0770332477458581e+01 -4 -2 0
1 3 6.2188391418401139e+00 6.6965406239998311e+00 3.5136088100150729e+00 1 0 0
111 2 2.7886918677774304e+00 6.7180843377298016e+00 1.7169983505836823e+00 2 0 0
20 3 4.0499795424593330e+00 8.1818711423567194e+00 1.0822728366649372e+00 1 0 0
23 2 5.3841497068504900e+00 8.1686947578277049e+00 2.4508443701884004e+00 1 0 0
132 2 2.4814312900749496e+00 8.2021142046428306e+00 4.3094383545208776e+00 2 0 0
113 2 5.2341314084464918e-01 5.2982958344477273e+00 2.5965703395152220e+00 2 0 0
5 2 5.2012847979124155e+00 5.3068207887795005e+00 2.6308017407020108e+00 1 0 0
10 2 4.9163906662588239e+00 6.8368400333316526e+00 4.8920734616963841e+00 1 0 0
109 3 1.4561965150701888e+00 6.7581404373113632e+00 3.2751579231729577e+00 2 0 0
131 2 8.1015846727085572e-01 8.3558607560914151e+00 2.4384848209062508e+00 2 0 0
114 2 2.5475992409575881e+00 5.3655670442515673e+00 4.1513763797799221e+00 2 0 0
2 3 3.9287314878876014e+00 5.2168857910449571e+00 1.1239814554863832e+00 1 0 0
118 2 1.6144807261190353e-01 6.7554846554261827e+00 4.8515584797319198e+00 2 0 0
8 3 3.7871652704855530e+00 5.1326917500277967e+00 5.6253357419279357e+00 1 0 0
26 3 3.9214170454449651e+00 8.1989678140893396e+00 5.8168165179569442e+00 1 0 0
7 3 6.2219666105768807e+00 6.7453851302611705e+00 8.0798325408911378e+00 1 0 0
117 2 2.9822510784725331e+00 6.6173939072088075e+00 6.6978525946435008e+00 2 0 0
29 2 5.3704885876738988e+00 8.2377900737620688e+00 7.1533170017439005e+00 1 0 0
115 3 1.5937133662729595e+00 6.7811231458041421e+00 8.1297641288747489e+00 2 0 0
16 2 4.8590585008343572e+00 6.8720371280324191e+00 9.4586370169051666e+00 1 0 0
32 3 3.8121261464340122e+00 8.3593071032030917e+00 1.0409459666596515e+01 1 0 0
138 2 2.5247765460629323e+00 8.2386793107807765e+00 8.9369001015975957e+00 2 0 0
119 2 6.8199487284513260e-01 5.2294206668349963e+00 7.1211001376310783e+00 2 0 0
11 2 5.3580039945631013e+00 5.2827314260095477e+00 7.1755874301474263e+00 1 0 0
14 3 4.0545899975941193e+00 5.3379488312251437e+00 1.0388252560824712e+01 1 0 0
137 2 6.9500218419637894e-01 8.2255501857397206e+00 7.1518070546815329e+00 2 0 0
120 2 2.6085020385384343e+00 5.2723399241178486e+00 8.9660529206939987e+00 2 0 0
124 2 2.1556989446019811e-01 6.7286623701019046e+00 9.5437166469219967e+00 2 0 0
35 2 5.2547926281434378e+00 8.3157567620256003e+00 1.1836141739013296e+01 1 0 0
418 1 4.8217238002371996e+00 6.3131616526438821e+00 1.4971921747603210e+01 3 -5 0
143 2 6.0967108824217386e-01 8.2868204388476059e+00 1.1906639583937871e+01 2 0 0
17 2 5.4143040294146090e+00 5.3599758281632477e+00 1.1679748453420185e+01 1 0 0
543 2 1.9261154266392716e-01 6.9005774558224218e+00 1.4311679165646183e+01 2 0 0
420 2 4.9868975520162140e+00 6.8771323518379894e+00 1.4140596539798333e+01 3 -5 0
126 2 2.4623766493658001e+00 5.3003802862882656e+00 1.3548466663380680e+01 2 0 0
13 3 6.4700409944692892e+00 6.6451996027804245e+00 1.2686102045527582e+01 1 0 0
144 2 2.4259542761565593e+00 8.2679661239805426e+00 1.3743914316299051e+01 2 0 0
463 1 4.1941461876116568e+00 7.2893025553228421e+00 1.3757005649531232e+01 1 1 0
121 3 1.6386800403919655e+00 6.7254350159005787e+00 1.2661637596638210e+01 2 0 0
125 2 5.3693270338414889e-01 5.4578078945292816e+00 1.1994075585194116e+01 2 0 0
541 1 5.1904991838928227e-01 6.6556491859845615e+00 1.5234002057355807e+01 2 0 0
348 2 4.7730731547349174e+00 5.0953996400952901e+00 1.6492218059083594e+01 1 -8 0
346 1 3.9486859858250578e+00 5.5802807438748463e+00 1.6570185463198477e+01 1 -8 0
496 1 6.6256715037399507e+00 8.6690132255163146e+00 1.6681795469956135e+01 -5 3 0
123 2 3.0925901919819134e+00 6.7929284853144729e+00 1.1337443417395150e+01 2 0 0
545 1 6.7813718402417829e+00 6.1649746274013530e+00 1.9292487912031728e+01 -6 6 0
260 1 3.1319530597373557e+00 6.4735824341768087e+00 2.0602767065709870e+01 -9 10 0
544 1 5.3229098985956433e+00 5.6458478554360516e+00 1.9659441292167894e+01 -6 6 0
259 1 3.5206700841318006e+00 6.2885160893693097e+00 1.9015982154408878e+01 -9 10 0
546 2 5.9073614744413501e+00 5.7949974837730664e+00 1.8907356191965413e+01 -6 6 0
279 2 3.3217939638385943e+00 7.2485780698877491e+00 1.7296262392889826e+01 3 7 0
261 2 3.4571919353522262e+00 5.8777461205960408e+00 1.9898320380787293e+01 -9 10 0
444 2 2.6545593320711212e+00 7.8885583646813728e+00 2.1524364518036538e+01 0 -7 0
278 1 2.7157951312658324e+00 7.9887944215257551e+00 1.7042310106367403e+01 3 7 0
347 1 5.3707748088455673e+00 5.2675459517758831e+00 1.7270957408219086e+01 1 -8 0
277 1 4.2610151194780119e+00 7.5980003905745814e+00 1.7143393558997413e+01 3 7 0
443 1 1.6790971435994009e+00 8.1684170828856555e+00 2.1323571582332107e+01 0 -7 0
345 2 4.9123371397831606e-01 6.1384448267955545e+00 1.6784960906170380e+01 2 -4 0
343 1 2.2005493903475543e-01 5.2912525945411204e+00 1.7067318030880113e+01 2 -4 0
344 1 1.4296371133565813e+00 6.3019663162360615e+00 1.7019540751370975e+01 2 -4 0
528 2 5.4424301573448322e+00 8.0191354671521236e+00 2.5015127597006039e+01 1 -3 0
168 2 6.1663146825603765e-01 5.4194674694336209e+00 2.4161750636922058e+01 0 0 0
166 1 4.3478362488682337e-01 6.2384468851659092e+00 2.4651700414590874e+01 0 0 0
442 1 2.6547095487006445e+00 7.7923045580793868e+00 2.2460022135674890e+01 0 -7 0
526 1 5.7057958250161471e+00 7.3894957534403236e+00 2.4219401307134969e+01 1 -3 0
540 2 2.9614159800934430e+00 7.5562955083909999e+00 2.4475902611339023e+01 2 -1 0
167 1 1.3936280689641976e+00 4.9952664520962440e+00 2.4784407820850280e+01 0 0 0
164 1 3.2322253330391031e+00 5.0612516499688169e+00 2.6493228897166652e+01 0 1 0
165 2 2.9922457922595904e+00 4.9352697285171159e+00 2.5518383186500174e+01 0 1 0
539 1 2.8548166088772713e+00 6.5905194095270074e+00 2.4751363697219055e+01 2 -1 0
488 1 5.6174686848899951e+00 5.8584115447647269e+00 2.2604598313549307e+01 1 1 0
489 2 6.2028341251528349e+00 6.7429218722854314e+00 2.2832287772408911e+01 1 1 0
538 1 3.8348449885168079e+00 7.8399532265318213e+00 2.4757179132228426e+01 2 -1 0
454 1 3.1843220181275194e+00 8.0709468987367039e+00 2.7112693761280955e+01 4 -8 0
326 1 6.8659404901180716e+00 6.8756029023342107e+00 2.6113763108120317e+01 -2 7 0
497 1 5.8892392833786058e+00 8.8828985865727077e+00 2.4822500188067938e+01 -2 6 0
487 1 5.9506187971869862e+00 7.5466390537874259e+00 2.2293096757355325e+01 1 1 0
448 1 6.8748529123782309e-01 7.2133785163194180e+00 2.7975235822791038e+01 -2 -5 0
177 2 5.4840067824697289e+00 4.5080125345779551e+00 2.9845204616296808e+01 -1 11 0
231 2 5.3311211666748184e+00 6.5528229942820397e+00 3.1715170899780883e+01 0 -11 0
459 2 9.2069458028944051e-01 8.7225157702675755e+00 3.0763285640812988e+01 -9 -7 0
221 1 3.1753650120173678e+00 6.1179504343090167e+00 2.8428099842978671e+01 -3 9 0
220 1 3.9736946506084325e+00 4.8233248776220981e+00 2.8853964549868270e+01 -3 9 0
229 1 5.5189148482536359e+00 7.5137756140483232e+00 3.1607007231836359e+01 0 -11 0
368 1 1.9055997417361368e+00 5.4986693229712955e+00 3.2366318094507605e+01 -1 3 0
436 1 1.2172898307318820e+00 7.9911167503616012e+00 3.1416539401112079e+01 -6 -5 0
176 1 5.6011410805895618e+00 5.3834125074327179e+00 3.0341177741016526e+01 -1 11 0
222 2 3.1131513774993356e+00 5.1689912046393021e+00 2.8573103238390768e+01 -3 9 0
449 1 9.5512945498155505e-02 8.0066333553212008e+00 2.9077930337361384e+01 -2 -5 0
455 1 2.6434992316718287e+00 8.4055327683299641e+00 2.8469960119372949e+01 4 -8 0
456 2 2.5721931771036166e+00 7.6996961477318209e+00 2.7749237809336169e+01 4 -8 0
351 2 2.1170060626986444e+00 7.1910877866049212e+00 3.2863668282422488e+01 -3 3 0
369 2 1.5815699537646282e+00 4.7039820540955413e+00 3.1918676921799914e+01 -1 3 0
527 1 6.7989613890889924e+00 8.4221664369738711e+00 2.8967551165461572e+01 -3 1 0
505 1 5.6867329390192287e+00 6.5408422238161616e+00 3.2627866840894143e+01 0 -7 0
367 1 2.0417763999469338e+00 4.5954891449387647e+00 3.1028403069969599e+01 -1 3 0
491 1 3.0504941895562441e+00 7.3779490827090504e+00 3.2822845703957995e+01 1 -8 0
175 1 6.0581015978588777e+00 4.5416639564222496e+00 2.9059007253534812e+01 -1 11 0
395 1 4.5016073184278582e-02 7.9067543963262761e+00 3.5532996309373289e+01 -5 -7 0
349 1 1.7351548971809689e+00 7.6258613717343309e+00 3.3656876987916874e+01 -3 3 0
476 1 5.2094031347101488e+00 6.6463230587147581e+00 3.7110702081631715e+01 -2 8 0
393 2 6.9106007724533507e+00 6.9695642256446044e+00 3.3953142695094527e+01 -2 -2 0
516 2 6.7486169693580420e+00 7.8058413690209187e+00 3.7373871800418904e+01 -1 -4 0
396 2 7.3987920441148136e-01 8.3696777803989306e+00 3.5052435102509257e+01 -5 -7 0
477 2 4.8807253805055639e+00 5.7370423936718256e+00 3.7245496796356626e+01 -2 8 0
387 2 2.2081245552786584e+00 8.6547714858225397e+00 3.7805622270579690e+01 1 -5 0
475 1 5.5733616957327712e+00 5.2122165416898616e+00 3.7648370011693302e+01 -2 8 0
386 1 2.8814470898656945e+00 7.9285799451199219e+00 3.8066197768886276e+01 1 -5 0
514 1 6.4432883007012931e+00 8.4745550260883196e+00 3.6696765360898212e+01 -1 -4 0
394 1 1.4006568472342866e+00 8.4287097863628713e+00 3.5787330896511122e+01 -5 -7 0
295 1 4.8180248513087474e+00 4.8588328797090456e+00 3.5081256155167154e+01 0 4 0
391 1 6.4218778168931987e+00 7.6758301570785283e+00 3.4387240524413677e+01 -2 -2 0
515 1 6.7030419011043465e+00 8.2768140445477112e+00 3.8240956430068806e+01 -1 -4 0
285 2 2.4626998746965989e+00 5.2686247515790701e+00 4.2857052282465865e+01 2 1 0
4 2 4.8902647109568207e+00 6.7711915201842334e+00 4.3514730620555042e+01 1 0 -1
362 1 1.6534729465076252e+00 8.7552527658644514e+00 4.2891849523749869e+01 -9 -12 0
363 2 2.4803992047538199e+00 8.2953563835799606e+00 4.2858814322967774e+01 -9 -12 0
529 1 3.1704330115101551e+00 5.4288077306241886e+00 3.9595072273051493e+01 5 5 0
486 2 5.4597634555541819e-01 8.0060136182493586e+00 4.0151869917681069e+01 -6 0 0
485 1 8.3120787746693658e-01 8.0301525084498113e+00 3.9233284875093375e+01 -6 0 0
217 1 3.8370309185675584e+00 6.7234695336125530e+00 4.0108751533811109e+01 0 -2 0
283 1 2.8576272856092153e+00 5.3736349981705773e+00 4.1918775579312644e+01 2 1 0
370 1 6.3760040281683370e+00 5.6232587882291289e+00 4.3346941384158157e+01 3 1 0
112 2 1.1776182498253472e-01 6.7390113730138728e+00 4.3615589792989013e+01 2 0 -1
219 2 3.6891691204617980e+00 5.8016317988665342e+00 4.0314216583207909e+01 0 -2 0
536 1 2.8470741819280949e+00 8.6700635306414267e+00 4.2055295884839779e+01 -5 1 0
284 1 1.8365505580844899e+00 6.0772413502129305e+00 4.2967907618363739e+01 2 1 0
400 1 6.9192370812896762e+00 5.6158295383601207e+00 3.9993328278184954e+01 -1 -4 0
174 2 3.8909265971786069e+00 8.8656038338290539e+00 4.0651367604578432e+01 -6 -9 0
509 1 6.2945642507247541e+00 7.6134217464084051e+00 4.3320123851908946e+01 2 -2 0
510 2 6.9650928966965626e+00 8.2479015969577656e+00 4.3010811190027617e+01 2 -2 0
92 3 8.6637194061914116e+00 2.4320915141575195e+00 1.1566453082316137e+00 1 1 0
39 2 7.5301139861285211e+00 3.8016865322929192e+00 1.8768605219151153e+00 1 1 0
96 2 1.1719667976861681e+01 2.3587960279324012e+00 4.4260907653206196e+00 1 1 0
95 2 9.8818625661792598e+00 2.3445533348925620e+00 2.6057393199347199e+00 1 1 0
146 3 1.3223645363881976e+01 2.2872632847717829e+00 1.2126757389237293e+00 1 1 0
75 2 1.2274348909145916e+01 8.3517765472028094e-01 2.1241636688646213e+00 1 1 0
100 2 9.4183724510581932e+00 3.7919171850824074e+00 4.7348726152499161e+00 1 1 0
91 3 1.1011273608957989e+01 3.8037474814517607e+00 3.4370947090637411e+00 1 1 0
93 2 1.2188798506013274e+01 3.6268885010981311e+00 1.9529236199210793e+00 1 1 0
73 3 1.0891906597773682e+01 9.3080246354930052e-01 3.4973999870609003e+00 1 1 0
21 2 7.4432143165079712e+00 8.8547269015707919e-01 1.8088024588212863e+00 1 1 0
82 2 9.4938588470889105e+00 8.4647067280783017e-01 4.9249105011454706e+00 1 1 0
42 2 7.1308048854454871e+00 2.2651999270154222e+00 4.3194430595795499e+00 1 1 0
98 3 8.6419488409343419e+00 2.3127302938851169e+00 5.7507689088957283e+00 1 1 0
152 3 1.3405900911717133e+01 2.2990865513689105e+00 5.7579838117452846e+00 1 1 0
102 2 1.1695126011334025e+01 2.3097223755965568e+00 8.9246635647983954e+00 1 1 0
88 2 9.4433617503962708e+00 9.3802594127465222e-01 9.3852847410818807e+00 1 1 0
106 2 9.5332263704788680e+00 3.6833852926784973e+00 9.5036029610186574e+00 1 1 0
158 3 1.3314329666850888e+01 2.2302679320628340e+00 1.0543382141167092e+01 1 1 0
104 3 8.6049102387305911e+00 2.2779020018684797e+00 1.0430316135232435e+01 1 1 0
101 2 9.9530228776736909e+00 2.3895042990864241e+00 7.0693993593666695e+00 1 1 0
99 2 1.2370347464115522e+01 3.7052340581261354e+00 6.6641811056930429e+00 1 1 0
45 2 7.7405271740476636e+00 3.8181055479100188e+00 6.6345737706638328e+00 1 1 0
97 3 1.0946940358419427e+01 3.7334998785766729e+00 8.1482887195381721e+00 1 1 0
79 3 1.1107754038354090e+01 7.6770957763420999e-01 8.0414805367163655e+00 1 1 0
27 2 7.5601910491330191e+00 9.3775681098249264e-01 6.5919626392881359e+00 1 1 0
81 2 1.2366473811547802e+01 8.9333510388556725e-01 6.6670655420902811e+00 1 1 0
48 2 7.0122067151687668e+00 2.3098388279902835e+00 9.0458336859068602e+00 1 1 0
51 2 7.6184292341086977e+00 3.8313888509201055e+00 1.1193676856080241e+01 1 1 0
33 2 7.5985869647240731e+00 7.9224739272584599e-01 1.1275774011677042e+01 1 1 0
105 2 1.2204312054824760e+01 3.7996570316568503e+00 1.1268889845263580e+01 1 1 0
512 1 1.3329121688487675e+01 1.5475851367549873e+00 1.4309459384843596e+01 -1 -1 0
311 1 9.8430377915775900e+00 3.7514459002299376e+00 1.5252453444251321e+01 1 1 0
85 3 1.1069796541890890e+01 8.6161536255646010e-01 1.2711118467794813e+01 1 1 0
108 2 1.1737507435330203e+01 2.2919085864283368e+00 1.3698561381565511e+01 1 1 0
107 2 9.9299339611227815e+00 2.3191928412770446e+00 1.1880660908054375e+01 1 1 0
312 2 9.4613302954965146e+00 3.7762191407972683e+00 1.4336733745035724e+01 1 1 0
103 3 1.0988630924283470e+01 3.8154748322703336e+00 1.2758495219455428e+01 1 1 0
240 2 9.3038439179803216e+00 7.6337048679296460e-01 1.4154509406957601e+01 0 -1 0
310 1 8.6029310622557791e+00 4.2664093917374197e+00 1.4443338171127300e+01 1 1 0
238 1 8.6605743388045742e+00 2.3545879682341614e-01 1.3736442921651069e+01 0 -1 0
181 1 1.3824819009977229e+01 3.5500509331716530e+00 1.5151659009287879e+01 0 -2 0
87 2 1.2222968061548817e+01 7.9935032204687428e-01 1.1294806395221702e+01 1 1 0
262 1 1.2243170912593857e+01 3.4092300924249339e+00 1.6515305126836768e+01 -2 4 0
239 1 8.9268972143044181e+00 1.6267758892735438e+00 1.4001092652397160e+01 0 -1 0
328 1 8.5884537057194450e+00 3.4314551113144209e+00 2.1408659713938654e+01 -1 1 0
366 2 1.0293606404716261e+01 3.6676586564483871e+00 1.6768213829703100e+01 -6 7 0
329 1 8.5609181721717604e+00 2.9551511602073846e+00 1.9923746074146756e+01 -1 1 0
440 1 1.3871201717419106e+01 4.5242401850961161e-01 2.1310686777051796e+01 -9 -9 0
365 1 1.0182399416517692e+01 2.9251966855082485e+00 1.7415175752375752e+01 -6 7 0
341 1 1.1602582917834418e+01 2.8835656998694024e+00 1.9980920318057763e+01 -8 -1 0
330 2 8.4780540920472767e+00 3.7701893317994331e+00 2.0507247418880397e+01 -1 1 0
340 1 1.1962406325790489e+01 1.4083528644491357e+00 1.9403755514699949e+01 -8 -1 0
342 2 1.1496937944554578e+01 1.8833476064514600e+00 2.0124771493622362e+01 -8 -1 0
253 1 8.6481288369246787e+00 1.1432933832139449e+00 1.9480692647658135e+01 -4 -5 0
254 1 7.6262570912795375e+00 1.5557248563558681e+00 1.8364717863735081e+01 -4 -5 0
255 2 8.5887898975200958e+00 1.6411795558633060e+00 1.8569590203925554e+01 -4 -5 0
412 1 1.1233237322307076e+01 1.1075497618123855e+00 2.1734200208632835e+01 -8 -1 0
324 2 1.3303362819992968e+01 6.1772362191314867e-01 1.8298831796080723e+01 -5 3 0
263 1 1.3207052963059670e+01 2.4710601882409318e+00 1.7196951603480326e+01 -2 4 0
264 2 1.3175012841996731e+01 3.3358133021060539e+00 1.6747555397718084e+01 -2 4 0
322 1 1.2729512624938712e+01 8.5338749989098753e-02 1.7725570582011503e+01 -5 3 0
376 1 9.3261674102553140e+00 2.3368577863195267e-01 2.1617890980059045e+01 1 6 0
378 2 8.7395478722399620e+00 3.4313930923785069e-02 2.0925623935302507e+01 1 6 0
258 2 7.5060681657135531e+00 1.4420250235800247e+00 2.4663866430278187e+01 0 2 0
237 2 1.2831557307625946e+01 3.2488646097130380e+00 2.4135978220420224e+01 -3 8 0
228 2 9.7462306340818028e+00 3.0602524790827346e+00 2.7385592791697199e+01 -6 0 0
413 1 1.0221503294159291e+01 1.3813649568182498e+00 2.2890763497717003e+01 -8 -1 0
355 1 1.0482031283110903e+01 3.2210291146685066e-01 2.6419508891782979e+01 -5 5 0
256 1 7.3212392600470615e+00 1.8912695937739665e+00 2.5569123260992274e+01 0 2 0
453 2 9.1970384812437800e+00 2.9799038691779511e+00 2.3079709733686652e+01 1 -6 0
236 1 1.2021498445013915e+01 3.4920760049637667e+00 2.4564913556642182e+01 -3 8 0
452 1 8.6106390980088605e+00 2.4435982650582182e+00 2.3716841905093297e+01 1 -6 0
257 1 8.2442921759784173e+00 9.0020752243219537e-01 2.5033361131744126e+01 0 2 0
357 2 9.5988798046486856e+00 5.3172240291074167e-02 2.6075919983720976e+01 -5 5 0
451 1 9.1379799044974188e+00 3.9685708335020524e+00 2.3274821978332305e+01 1 -6 0
373 1 1.3794571858833303e+01 2.0884480460627119e-01 2.4517887882801364e+01 0 0 0
235 1 1.3313206898197288e+01 4.1176296383203494e+00 2.4086499326584857e+01 -3 8 0
414 2 1.0805100264189036e+01 6.8362834482277990e-01 2.2525372417357644e+01 -8 -1 0
293 1 1.3683769924693689e+01 2.3872206007654593e+00 2.2746355125419448e+01 -5 -18 0
226 1 1.0701980052354111e+01 3.2729572542683627e+00 2.7385443297324436e+01 -6 0 0
493 1 7.0556440721246974e+00 2.9203087061307715e+00 2.7337346957292247e+01 -5 -7 0
426 2 1.2436681194392637e+01 3.3516394338238658e+00 2.8563056632201128e+01 -6 -8 0
227 1 9.7513946984246438e+00 2.2724455326165449e+00 2.7919247634288787e+01 -6 0 0
425 1 1.3388361861651962e+01 3.4940417378123203e+00 2.8334088429592800e+01 -6 -8 0
507 2 9.7555815268910173e+00 7.4903125430878947e-01 2.9280232799569511e+01 0 -1 0
506 1 1.0582718634802070e+01 4.3836115934655512e-01 2.8812119804629443e+01 0 -1 0
424 1 1.2349836836582835e+01 2.8593628536187130e+00 2.9384365870878327e+01 -6 -8 0
427 1 9.0171848848696410e+00 2.3658684142039017e+00 3.2523015569686542e+01 1 1 0
313 1 1.0750231862357907e+01 1.6436312937688764e+00 3.0641851574647532e+01 -7 10 0
270 2 1.3226893120840527e+01 6.3011300927891545e-01 3.2605703312021078e+01 -5 -7 0
299 1 8.5430754664953650e+00 3.9919274488383505e+00 2.8010585562724291e+01 -5 6 0