LAMMPS data file via write_data, version 5 Jun 2019, timestep = 1020000

546 atoms
3 atom types

0.0000000000000000e+00 1.3959816000000000e+01 xlo xhi
0.0000000000000000e+00 8.9076089999999990e+00 ylo yhi
4.4245400000000146e-01 4.3802945999999991e+01 zlo zhi

Masses

1 1
2 16
3 47.86

Atoms # atomic

6 2 2.3295908358431956e+00 1.8428880818209303e+00 4.5258413825877604e+00 1 0 0
100 2 4.6877217117149108e+00 3.8079286726861716e-01 4.8165505396142168e+00 1 1 0
56 3 3.5860153092424851e+00 2.0416681756466639e+00 1.3267872414180353e+00 1 0 0
1 3 1.2905288145040095e+00 3.4511674894444728e+00 3.4277360764983333e+00 1 0 0
37 3 1.4006598974056048e+00 4.6842012201865391e-01 3.5982929702957436e+00 1 1 0
5 2 4.3642338730937708e-01 1.9849631743396858e+00 2.7450860934751677e+00 1 0 0
55 3 5.9798450864801120e+00 3.4736181237289108e+00 3.4483178323182138e+00 1 0 0
59 2 5.0536863041285107e+00 1.9283972547917299e+00 2.4259890263692601e+00 1 0 0
64 2 4.6424944415924427e+00 3.3381857610514949e+00 4.8405796987929710e+00 1 0 0
3 2 2.7197585801056481e+00 3.4822932527293395e+00 1.9776413987281143e+00 1 0 0
39 2 2.5791553123389339e+00 4.5669487136391068e-01 1.9871600434131369e+00 1 1 0
91 3 6.2723595020655267e+00 5.5231284322790675e-01 3.3423747939563313e+00 1 1 0
62 3 3.7599638951475778e+00 1.7877747395366896e+00 5.8278727581667411e+00 1 0 0
10 2 5.3290116332188830e-02 3.3653329491067150e+00 4.9384645170911163e+00 1 0 0
40 2 5.1502013556294912e-03 3.6911375654112372e-01 4.6666941578467203e-01 1 1 0
9 2 2.9321226728548595e+00 3.3773770314886642e+00 6.7197353451177531e+00 1 0 0
12 2 2.4374579698198655e+00 1.7539135900035914e+00 9.0621676283642500e+00 1 0 0
43 3 1.4228651819077969e+00 2.3117391488822925e-01 8.1521905555341316e+00 1 1 0
61 3 5.9882618737584217e+00 3.3706317378828272e+00 8.0817673562671306e+00 1 0 0
7 3 1.7051825879141398e+00 3.2189538713704362e+00 8.1601399396963785e+00 1 0 0
70 2 4.5740762427864130e+00 3.2839855795372168e+00 9.5019537819697959e+00 1 0 0
11 2 5.3546958283680346e-01 1.7978418136584906e+00 7.2024592747285787e+00 1 0 0
65 2 5.2009093866704523e+00 1.8905703850267404e+00 7.3125035939079046e+00 1 0 0
68 3 3.7908183761124312e+00 1.7987111021183497e+00 1.0551183592161873e+01 1 0 0
45 2 2.8621693975204030e+00 3.7192130216012470e-01 6.7683169562526944e+00 1 1 0
97 3 6.1819748733568600e+00 3.7425467961316944e-01 8.3605950474901629e+00 1 1 0
106 2 4.7661028525492055e+00 2.8940327411023120e-01 9.7289068375531134e+00 1 1 0
52 2 3.1821496021663620e-02 2.9330999804124341e-01 9.6051461988168096e+00 1 1 0
15 2 2.7237146329862050e+00 3.1995959994628702e+00 1.1268480759311709e+01 1 0 0
315 2 4.5982302222937248e+00 4.0046566522336990e-01 1.4268989480429751e+01 0 -2 0
517 1 3.6591027628962580e+00 3.7736172676745974e+00 1.4272642230944147e+01 -1 1 0
17 2 4.1907424000590326e-01 1.7207383843278610e+00 1.1942020546138794e+01 1 0 0
13 3 1.4843582768190018e+00 3.3403237009129407e+00 1.2609620393802604e+01 1 0 0
71 2 4.9702013426713076e+00 2.0083239175076604e+00 1.1975108999666437e+01 1 0 0
519 2 4.4312833193389789e+00 3.1894528433135734e+00 1.4409233001506603e+01 -1 1 0
103 3 6.1245582785918504e+00 2.8667686982846546e-01 1.2824467927827126e+01 1 1 0
51 2 2.7711736740174189e+00 4.1150316245458507e-01 1.1395404224658050e+01 1 1 0
503 1 6.5192643961434689e+00 1.2796985590982892e+00 1.5532200591738953e+01 0 5 0
18 2 1.9292014007362168e+00 1.9499585045159438e+00 1.3881389177970810e+01 1 0 0
49 3 1.3140227569783480e+00 4.4473326138696567e-01 1.3031794359641946e+01 1 1 0
72 2 6.7878404365192955e+00 1.8313197600372459e+00 1.3717169774544482e+01 1 0 0
313 1 4.2508518109421978e+00 1.2609335916872197e+00 1.4522443285878872e+01 0 -2 0
67 3 6.1718385465160068e+00 3.3186430916062948e+00 1.2794519460504171e+01 1 0 0
518 1 4.8373053863334965e+00 3.6092595972030814e+00 1.5179317309368329e+01 -1 1 0
504 2 6.6124882765615283e+00 1.1549041049740216e+00 1.6511671574306636e+01 0 5 0
187 1 7.3638429210618184e-01 3.0098939767917638e+00 1.6277671103836841e+01 -1 -3 0
189 2 3.4529290576346444e-01 2.0968606799849496e+00 1.6428793020204704e+01 -1 -3 0
270 2 1.9894099589958127e+00 3.9193048626333180e+00 2.0733469890171893e+01 2 -1 0
357 2 1.7240127956529350e+00 1.9867905650553658e-01 1.7809179066580235e+01 0 -4 0
360 2 4.3530570290550141e+00 1.5754087638249434e+00 1.7886765239000159e+01 -3 0 0
358 1 3.9750907419317589e+00 2.4477429146129381e+00 1.8150038903927523e+01 -3 0 0
359 1 3.5437220455900809e+00 1.0474168062514895e+00 1.7776047107849731e+01 -3 0 0
306 2 3.5451249732790058e+00 3.9465984367951656e+00 1.8457276380584862e+01 -2 7 0
304 1 3.1067982964503074e+00 4.3119377413243631e+00 1.7666828042161455e+01 -2 7 0
498 2 1.2990388281993119e+00 1.6059771039761734e+00 1.9888810980109103e+01 1 -3 0
496 1 1.3832869898297164e+00 2.5170362089398668e+00 2.0360535084802624e+01 1 -3 0
502 1 5.7669858193803885e+00 1.6296411363970496e+00 1.6862998273798716e+01 0 5 0
181 1 5.0121190623760450e+00 1.0772347730398011e+00 1.9425976591633809e+01 1 -8 0
355 1 1.4971324288539989e+00 8.5861158377867663e-01 1.8581937650680167e+01 0 -4 0
224 1 2.1794302249070876e+00 7.1042031069091127e-01 2.1456893830561860e+01 -2 -3 0
305 1 2.9216387295022419e+00 4.0084630708693947e+00 1.9192703278525599e+01 -2 7 0
268 1 2.2576673667827825e+00 4.0265209189445681e+00 2.1650014362673545e+01 2 -1 0
183 2 5.1621156469743834e+00 4.9843805871139724e-01 2.0165149321610539e+01 1 -8 0
182 1 5.3785028225791187e+00 1.0480023805908611e+00 2.0964630168217759e+01 1 -8 0
497 1 3.6060914978101877e-01 1.4252612993299625e+00 2.0079898802926465e+01 1 -3 0
356 1 1.3333934037134811e+00 6.9062813611872342e-01 1.7016498709605450e+01 0 -4 0
445 1 5.2801462097348804e+00 4.2825223993455257e+00 1.9082603369125582e+01 -1 2 0
229 1 6.7490772979852975e+00 3.3534131719160740e+00 2.6786836363842312e+01 0 -8 0
256 1 5.3999830180478918e+00 3.4597599744164640e+00 2.4767121850989639e+01 -5 -5 0
390 2 4.1983805631587519e+00 1.4048614458347812e+00 2.6501713059515016e+01 -2 1 0
318 2 1.8705756657632451e+00 4.2628793904862916e-01 2.5863041814381663e+01 -4 2 0
389 1 4.9400225500734427e+00 1.8746762904476733e+00 2.6069922630870835e+01 -2 1 0
240 2 7.6092714563882391e-01 2.5559296619685461e+00 2.6908750502853490e+01 -5 -10 0
258 2 5.2882483471208550e+00 3.8971242398633499e+00 2.3902065883779226e+01 -5 -5 0
225 2 2.5963818762980355e+00 5.2390278458511164e-01 2.2320207222849049e+01 -2 -3 0
227 1 1.2414123954501004e+00 3.9097940969267251e+00 2.5888585630037667e+01 -1 1 0
400 1 2.3801566463658603e+00 3.2971419490654328e+00 2.3959849080340991e+01 -1 5 0
402 2 2.9140786826724487e+00 3.2040007531769010e+00 2.3060548751816420e+01 -1 5 0
239 1 1.0872119141655900e+00 1.7187525186490764e+00 2.6546133454277932e+01 -5 -10 0
401 1 3.0636825616225929e+00 2.2296704979660849e+00 2.2853181689602049e+01 -1 5 0
265 1 6.2753876735515526e+00 2.7658966715181261e+00 2.2913581609925316e+01 0 1 0
388 1 3.5067364695354208e+00 1.1564231294635841e+00 2.5827924645941394e+01 -2 1 0
231 2 6.4515573262528250e+00 2.6005904364666557e+00 2.6231603193194044e+01 0 -8 0
257 1 4.3440439930757115e+00 3.7303654821624508e+00 2.3608461415454439e+01 -5 -5 0
491 1 3.3598701069503707e+00 2.8960870299841486e+00 2.7380306295799912e+01 -3 0 0
456 2 6.5951541084436398e+00 1.9802335708309879e+00 2.2344735583888575e+01 0 1 0
228 2 1.6601476834073794e+00 4.3295322746896030e+00 2.5134371589335704e+01 -1 1 0
278 1 1.7660829003540142e+00 1.3008970005344622e-01 2.2821931881219594e+01 1 -5 0
403 1 1.4549449817755784e+00 5.8393674109160187e-02 2.5088744213021549e+01 -1 0 0
272 1 4.6094077966125671e+00 3.8031254755083921e-01 3.0430371333075062e+01 3 1 0
455 1 3.1996376828496138e+00 2.3402589488350043e+00 2.9444039373175780e+01 0 1 0
288 2 6.7214385606562379e+00 4.1016485949113619e+00 3.0756281044265940e+01 1 -1 0
540 2 4.3039235273396619e+00 3.8678383628648629e+00 3.1776798431096314e+01 -1 6 0
535 1 2.5879104938103978e+00 1.3881223255492501e+00 3.0628823483647363e+01 -1 1 0
164 1 1.8450744436906685e-01 9.5282123920792194e-01 3.1168280289797117e+01 -3 -3 0
377 1 3.3325203544339282e-01 3.8685695189541831e+00 3.0244420301676829e+01 -5 1 0
537 2 3.3930277345114779e+00 1.7504743547276178e+00 3.0266522693907167e+01 -1 1 0
539 1 3.6671276900669127e+00 3.2626882701831508e+00 3.1291066166234430e+01 -1 6 0
339 2 2.8971071463325129e+00 3.2542448309086631e+00 2.8205194333448102e+01 -4 1 0
337 1 1.9512677160575711e+00 3.0442143433335729e+00 2.7982938972423483e+01 -4 1 0
287 1 5.8104980954360022e+00 3.8902305562273867e+00 3.1171225414680826e+01 1 -1 0
165 2 9.3795665882980872e-01 4.2740277705866603e-01 3.0546814231349320e+01 -3 -3 0
163 1 4.6823212434299954e-01 1.4791718134262055e-01 2.9751133061727685e+01 -3 -3 0
376 1 3.7459207947762346e-01 4.3277993317770429e+00 3.1804062550071823e+01 -5 1 0
302 1 2.4525824164907730e+00 3.2943651693615639e+00 3.7402145716297497e+01 -6 -4 0
203 1 4.8130187614412652e+00 2.8822125323731989e+00 3.5374478142835670e+01 -5 0 0
516 2 7.9337221123052304e-01 5.5415617977722723e-03 3.5785149294233506e+01 -2 2 0
363 2 3.4324194450685890e+00 2.8792364499610255e+00 3.4154441022848843e+01 -9 2 0
373 1 3.0623214607225169e+00 8.7235284786160572e-01 3.8007893969795973e+01 -4 -3 0
331 1 1.7114585577522488e+00 3.3430942375516897e+00 3.3729416818145708e+01 -4 -7 0
303 2 1.9299584385244626e+00 4.0772432717016907e+00 3.7736867696896901e+01 -6 -4 0
204 2 5.5850380563026434e+00 2.8202844012688186e+00 3.6129544267967965e+01 -5 0 0
332 1 3.3324212034971035e-01 4.2744006180416116e+00 3.4091714681982616e+01 -4 -7 0
197 1 2.3471554196121636e+00 5.6979459715544148e-02 3.4672917106996017e+01 -5 -8 0
317 1 5.3974158852959819e+00 3.4876575342227301e+00 3.6769772919523099e+01 -4 1 0
418 1 6.6919633330269024e+00 4.3508691745678609e+00 3.5344241744758456e+01 0 -1 0
362 1 3.4964648319818772e+00 1.9478222810001988e+00 3.3872227357170857e+01 -9 2 0
221 1 6.8676179641368718e+00 1.3078290555719969e+00 3.8110060316096899e+01 0 -4 0
374 1 4.3102181088615952e+00 1.7541253731489106e+00 3.7528323299998910e+01 -4 -3 0
375 2 3.4210235830258862e+00 1.7759335808025503e+00 3.7873734481606995e+01 -4 -3 0
289 1 2.9651497651792008e-01 3.0534525156134880e+00 3.7020482386054951e+01 -3 1 0
198 2 3.0882234668603084e+00 3.1325850619750809e-02 3.3978160190675844e+01 -5 -8 0
515 1 3.0866261997500510e-01 9.1394875331068737e-01 3.5851596585453841e+01 -2 2 0
361 1 3.7793992224813948e+00 3.3691025813439506e+00 3.3313297095824439e+01 -9 2 0
333 2 7.5452115663111152e-01 3.6096390545610570e+00 3.3591000107829878e+01 -4 -7 0
440 1 3.5729230021190279e+00 1.9006012457001527e+00 3.9672599639112370e+01 -5 0 0
432 2 2.2175252773764922e+00 2.0931877464655271e+00 4.2963968763511907e+01 3 2 0
94 2 4.2598682051996750e+00 3.8819073215727468e-01 4.3342658908171423e+01 1 1 -1
430 1 1.3446335223129569e+00 2.4489552117575202e+00 4.2980687845638677e+01 3 2 0
222 2 6.1766183873035621e+00 1.6001325894422469e+00 3.8685827184639365e+01 0 -4 0
431 1 2.5210539530303055e+00 1.9733059701779436e+00 4.1980012071117898e+01 3 2 0
353 1 2.1695521020458495e+00 3.7486912364314162e+00 4.2870456869329189e+01 0 -1 0
254 1 6.0370645030698986e+00 2.3764721775674356e+00 4.3468667707951376e+01 -6 -1 0
439 1 4.2823772342388615e+00 2.0538322315197712e+00 4.1012819268267812e+01 -5 0 0
441 2 3.4721024213274858e+00 1.7183016821910357e+00 4.0645415933226410e+01 -5 0 0
58 2 4.4723706766084037e+00 3.2891221218602262e+00 4.3530020867129956e+01 1 0 -1
249 2 6.7033066214995847e+00 1.8217680805032310e+00 4.2978998930454459e+01 -2 3 0
385 1 3.9197237654342172e+00 4.3954561648748998e+00 4.1294345504859685e+01 2 -3 0
253 1 6.1491464657923842e+00 3.9415316271727159e+00 4.0559449250084008e+01 -6 -2 0
220 1 6.5958451641437916e+00 2.2505843775874559e+00 3.9366015577681907e+01 0 -4 0
201 2 6.9591035641872852e+00 3.4697034854295534e+00 4.0751131789485008e+01 -6 -2 0
200 1 5.0812798828236350e+00 5.9753614194106586e-01 4.3114895223013484e+01 -6 -1 0
173 1 5.9441026320858237e+00 8.6981088536119924e-02 3.9618679987900570e+01 -1 -6 0
247 1 6.9665754252032350e+00 2.4550079933898861e+00 4.2276706624916727e+01 -2 3 0
92 3 3.7094488061855522e+00 7.8700476676825160e+00 1.2185423309667200e+00 1 0 0
24 2 2.4069903813261657e+00 4.9333330014070205e+00 4.1755497157231343e+00 1 0 0
82 2 4.6036124871279664e+00 6.3678793760842485e+00 4.8879599098873072e+00 1 0 0
95 2 5.0723459812463947e+00 7.9037958883047876e+00 2.4626358658679708e+00 1 0 0
42 2 2.0232901288767655e+00 7.8236770871832269e+00 4.5266154270614276e+00 1 0 0
21 2 2.6439551180296510e+00 6.5238768726375351e+00 1.8818413506805669e+00 1 0 0
19 3 1.4787732525422057e+00 6.4943207597631991e+00 3.4326656569198084e+00 1 0 0
73 3 6.1819535717436205e+00 6.4411072706787298e+00 3.4295206811280079e+00 1 0 0
41 2 3.0400156522957966e-01 7.8105891368702389e+00 2.6102233564925479e+00 1 0 0
23 2 4.3888942420931443e-01 4.9004883022455319e+00 2.6086042383962011e+00 1 0 0
74 3 3.8560626140991263e+00 4.8987043740602854e+00 9.7465188165727601e-01 1 0 0
77 2 4.9232565887480657e+00 4.8222852154564260e+00 2.5326103583574957e+00 1 0 0
80 3 3.7116226067837230e+00 4.8092574540835722e+00 5.5313803575460794e+00 1 0 0
98 3 3.9575205847038433e+00 7.8646343375384378e+00 5.8548506428712912e+00 1 0 0
96 2 6.9311670934307674e+00 7.8543860289901026e+00 4.3768328963256913e+00 1 0 0
83 2 5.1650031111381365e+00 4.8049018560088887e+00 7.2733777463185092e+00 1 0 0
25 3 1.6502078967689406e+00 6.3101873864578222e+00 8.0064579784016914e+00 1 0 0
101 2 5.1444239207785136e+00 7.6969251648249486e+00 7.2210943616598895e+00 1 0 0
79 3 6.1627575710583500e+00 6.1916128732740328e+00 8.1340959879962362e+00 1 0 0
48 2 2.3228258974782254e+00 7.7681147488497029e+00 9.1387184504317087e+00 1 0 0
27 2 2.8807927149537478e+00 6.3111187784524896e+00 6.6114887213818765e+00 1 0 0
88 2 4.6570038011796182e+00 6.2863534099386049e+00 9.7503254561434982e+00 1 0 0
104 3 3.6618742584717943e+00 7.8637301328992075e+00 1.0688855142480806e+01 1 0 0
47 2 5.5033193447912354e-01 7.7704176835621412e+00 7.2463681588263222e+00 1 0 0
86 3 3.8919611674791939e+00 4.8237209939679753e+00 1.0467340113044036e+01 1 0 0
30 2 2.4551298423245171e+00 4.8542069033370199e+00 9.0544031032819863e+00 1 0 0
29 2 5.4488888832326210e-01 4.6307813981947072e+00 7.2897002487504023e+00 1 0 0
84 2 6.9354654026569333e+00 4.8476191307953158e+00 9.1295482761386779e+00 1 0 0
406 1 5.1067148444401305e+00 6.8339820133743920e+00 1.5724181105187080e+01 -3 -4 0
408 2 4.7418732654788833e+00 6.3152186510649697e+00 1.4952360576876984e+01 -3 -4 0
31 3 1.4150755098400520e+00 6.3017718255278607e+00 1.2718407005566068e+01 1 0 0
90 2 6.7786501871055034e+00 4.7888734567852449e+00 1.3863240511086422e+01 1 0 0
85 3 6.1479698866834713e+00 6.2036126187283269e+00 1.2831459785725182e+01 1 0 0
407 1 3.8608026694584141e+00 6.6932375310706975e+00 1.4833178269810025e+01 -3 -4 0
54 2 2.0512867359181080e+00 7.7739151419071444e+00 1.3884892339302448e+01 1 0 0
36 2 2.2016496458311003e+00 4.6920944916291676e+00 1.3634552085271801e+01 1 0 0
107 2 5.0012004958977645e+00 7.8449297548548245e+00 1.2128144301863800e+01 1 0 0
53 2 2.7203855944210886e-01 7.6877616688069530e+00 1.1962497008007304e+01 1 0 0
35 2 2.8254541710541570e-01 4.8331860067121344e+00 1.2007336089773913e+01 1 0 0
89 2 4.9689340826617565e+00 4.8268652550323807e+00 1.2179345226592806e+01 1 0 0
314 1 3.8509860315232980e+00 8.6826151319307954e+00 1.4003876422425252e+01 0 -3 0
329 1 1.7376840871116410e+00 4.8112589243418507e+00 1.5405574791054121e+01 0 5 0
33 2 2.8153664446579283e+00 6.2398081579349061e+00 1.1578828869885191e+01 1 0 0
330 2 1.8962997025204353e+00 4.4966759383334756e+00 1.6278037355294988e+01 0 5 0
457 1 5.1263467705635568e-01 6.2542286667628417e+00 1.8682386820891658e+01 3 4 0
489 2 3.9832622322941456e+00 7.1807453130346932e+00 1.9271310952119578e+01 1 -6 0
506 1 5.3836574149382015e+00 7.5113501426237992e+00 1.7770610565845619e+01 0 4 0
422 1 6.2306615720808027e+00 6.3011524685346396e+00 1.9739023796066125e+01 -1 -3 0
544 1 6.1933029704958917e+00 8.3427574969613332e+00 1.6728500857210236e+01 -3 0 0
479 1 6.2082973403923409e+00 7.7193334050111160e+00 2.0368405613234966e+01 -1 -4 0
505 1 3.0875155955648332e+00 7.1792374200047533e+00 1.8810957402276774e+01 1 -4 0
459 2 1.1885538378657370e+00 6.6856601313548047e+00 1.8029331887938906e+01 3 4 0
480 2 6.7422956749939784e+00 6.9047457147466549e+00 2.0333346495044399e+01 -1 -4 0
458 1 1.1193471757268187e+00 7.6973370094860076e+00 1.8141422454742553e+01 3 4 0
487 1 4.1382091611525071e+00 8.1077293113980193e+00 1.9660147857586356e+01 1 -6 0
447 2 6.1645395570423078e+00 4.7031303314836608e+00 1.9013368152569139e+01 -1 2 0
416 1 3.8045897094668488e+00 6.4955064964042677e+00 2.1172744866974625e+01 4 -1 0
335 1 6.7510083638152603e+00 6.1735350043107040e+00 2.1924823561701906e+01 -6 7 0
446 1 6.3055093767038821e+00 4.8935146692466454e+00 1.8038306236364964e+01 -1 2 0
269 1 1.2532133152973217e+00 4.5754882155751844e+00 2.0595704784473806e+01 2 -1 0
507 2 5.9870928760125501e+00 7.4253568184702434e+00 1.7060138686488141e+01 0 4 0
417 2 3.5590112969664114e+00 6.6815516325740676e+00 2.2079112428863496e+01 4 -1 0
421 1 3.3474493121258075e+00 7.6148802248104781e+00 2.1915609588769527e+01 3 -5 0
328 1 1.5855619498286286e+00 5.3087518976907049e+00 1.6787199487430591e+01 0 5 0
324 2 3.7384451023858825e+00 6.1549267434246309e+00 2.5268730370184688e+01 -3 -1 0
323 1 3.7926349459725142e+00 6.0683980207873409e+00 2.4264152110613995e+01 -3 -1 0
322 1 4.1762799252456650e+00 7.0471613019611112e+00 2.5474314338264588e+01 -3 -1 0
397 1 2.2906504943999133e+00 5.0128395611298817e+00 2.5460771481231205e+01 -1 2 0
334 1 6.3065187196727415e+00 5.1169681502666071e+00 2.2948444650099432e+01 -6 7 0
259 1 9.5750931606469081e-02 7.9831521064400102e+00 2.2938596482869876e+01 -1 3 0
414 2 5.3903106201581767e+00 8.2617384155673648e+00 2.4148752568639935e+01 -5 -7 0
529 1 4.5487084055409817e+00 8.6623288005045342e+00 2.7351593340201241e+01 -4 1 0
413 1 5.3341695933124775e+00 7.3190517888708468e+00 2.3806767410692146e+01 -5 -7 0
263 1 4.5155894226940704e-02 4.7825108398402731e+00 2.4653039172756166e+01 0 -3 0
261 2 4.3557088313651049e-01 8.6145317941292543e+00 2.3621913297665142e+01 -1 3 0
382 1 6.7536417627236656e+00 7.2367547797225562e+00 2.6982720291485073e+01 -3 6 0
412 1 4.8060250068030177e+00 8.6673284109035436e+00 2.3459707863462093e+01 -5 -7 0
202 1 1.7872110469841782e+00 8.4905625154223827e+00 2.6451873946821561e+01 -5 -1 0
450 2 6.9406202892848539e+00 8.3478723441437968e+00 3.2191622694938893e+01 -3 -3 0
186 2 1.8224014059366664e+00 7.4148710464881180e+00 3.2362927496117699e+01 -2 1 0
481 1 4.3885111228417957e+00 6.7686966384067135e+00 3.0890549815524242e+01 -4 -6 0
271 1 5.2958258825019069e+00 8.4926507952268739e+00 2.9379532840870091e+01 3 0 0
420 2 3.3394400047140133e-01 7.8743653849518056e+00 2.8483490260191715e+01 1 -4 0
292 1 3.1840745806673239e+00 6.0614137297385682e+00 2.9451887152325558e+01 -3 2 0
483 2 3.6227387659454595e+00 6.0890388149212384e+00 3.0928739685221142e+01 -4 -6 0
293 1 3.2985936669187788e+00 5.3571659130695917e+00 2.7980462074473255e+01 -3 2 0
482 1 2.9226636538769348e+00 6.4500879331234415e+00 3.1567737171827169e+01 -4 -6 0
536 1 9.8971545185553855e-01 7.2307517547866977e+00 2.8771674878009136e+01 -1 -3 0
294 2 2.9606958424362881e+00 6.1439959702325373e+00 2.8454345414910406e+01 -3 2 0
273 2 5.2270827023178486e+00 8.5148874020216017e+00 3.0360116180082905e+01 3 0 0
184 1 1.4996381378225700e+00 7.9450393064670690e+00 3.1578784177164774e+01 -2 1 0
448 1 6.2708015841676303e+00 8.5452351185717603e+00 3.1451503961203606e+01 -3 -3 0
185 1 2.4009636628854967e+00 8.0981493093609824e+00 3.2889955207376687e+01 -2 1 0
531 2 5.1365865925241652e+00 7.9679787012510959e+00 2.7688679667744502e+01 -4 1 0
530 1 4.3667433122205237e+00 7.2422025348500423e+00 2.7966638138349580e+01 -4 1 0
378 2 1.0764913125365809e-01 4.6307422618467964e+00 3.0866668950149517e+01 -5 1 0
538 1 4.1096317282046977e+00 4.8472243512024145e+00 3.1539701376956497e+01 -1 6 0
486 2 7.7117570620947262e-02 6.3587666970264740e+00 3.4098593245517577e+01 0 -6 0
380 1 1.7578790262204371e+00 7.0345504096206968e+00 3.6767674150821051e+01 1 2 0
242 1 5.1339598291391724e+00 5.9223463790698290e+00 3.6504294906537140e+01 -6 -3 0
243 2 5.1181118697435029e+00 6.0213160352534638e+00 3.5511333450870680e+01 -6 -3 0
281 1 6.5225011332340204e+00 7.3525016450522616e+00 3.5128526705672925e+01 -1 -1 0
379 1 1.4357781316702389e+00 6.1225173978907002e+00 3.5421595729993996e+01 1 2 0
267 2 5.4592848450585718e+00 4.7580863111433409e+00 3.8038511141628504e+01 -1 -1 0
381 2 1.9543910932207136e+00 6.2441793649122852e+00 3.6194484998247496e+01 1 2 0
241 1 4.1475950063325753e+00 6.1272311319024038e+00 3.5350681013538527e+01 -6 -3 0
301 1 1.9925003444157698e+00 4.6740309358571297e+00 3.6950009554450368e+01 -6 -4 0
485 1 6.9989433133763690e-01 6.5742175395452298e+00 3.3337108001763220e+01 0 -6 0
514 1 3.0290349706120123e-01 8.4609564961601329e+00 3.5033133858307124e+01 -2 1 0
196 1 3.8545118347911083e+00 8.5758674070697722e+00 3.4514963068067246e+01 -5 -9 0
219 2 1.8783641330782002e+00 8.3979099153254175e+00 3.8338451684643829e+01 4 7 0
248 1 5.9812772350473615e+00 7.1940169871931632e+00 4.3082496726026271e+01 -2 2 0
217 1 2.2499187244712355e+00 8.0002940848378827e+00 3.9175537875042565e+01 4 7 0
352 1 1.2212022836131542e+00 4.9399200942200139e+00 4.3068923674169916e+01 0 -1 0
76 2 4.4938958591209186e+00 6.3497885310293318e+00 4.3492278446289326e+01 1 0 -1
468 2 2.1955691193041140e+00 7.9469631090982098e+00 4.2968275580230681e+01 1 1 0
532 1 2.8957592655726478e+00 7.4693507912341399e+00 4.1384353408278798e+01 0 5 0
533 1 4.2119803396627837e+00 7.7451427038033644e+00 4.0472563006117589e+01 0 5 0
466 1 1.7736506294849086e+00 8.7992715794939009e+00 4.2994093083124611e+01 1 1 0
354 2 2.2175875643375158e+00 4.6966458810797072e+00 4.2864608744752850e+01 0 -1 0
386 1 3.9555696971893295e+00 5.8008014557739171e+00 4.0416529974600984e+01 2 -3 0
534 2 3.2765894736896715e+00 7.2478326889961080e+00 4.0536153560000791e+01 0 5 0
470 1 1.2229271542784139e+00 5.0026509101541334e+00 4.0793226120231516e+01 -4 -2 0
255 2 6.8896446183342333e+00 7.5365360159811630e+00 4.2886498033530202e+01 -6 -2 0
467 1 1.4520697620966148e+00 7.3438209331816404e+00 4.3114698694514871e+01 1 1 0
387 2 4.3222232152031905e+00 4.7699096399749825e+00 4.0484847948333829e+01 2 -3 0
471 2 5.6956515673604446e-01 5.0132499500919296e+00 4.0062890140513183e+01 -4 -2 0
174 2 5.8990960980467513e+00 8.0935157609991446e+00 4.0125787644490316e+01 -1 -7 0
172 1 6.3923518109070674e+00 8.1845718708881670e+00 4.1001671806339779e+01 -1 -7 0
469 1 1.0368773489206651e+00 4.5389027789684810e+00 3.9318880513834948e+01 -4 -2 0
488 1 4.9734160881520761e+00 4.5236012116445092e+00 3.8872744818557521e+01 1 -2 0
266 1 6.2406737055939896e+00 5.1470316584599489e+00 3.8423334405931591e+01 -1 -1 0
218 1 1.0140314432057786e+00 8.7489735950205016e+00 3.8516201482430517e+01 4 7 0
57 2 7.2701703608771870e+00 3.3834185403764550e+00 1.9551142811386706e+00 1 0 0
111 2 1.2029265063170213e+01 3.3895274735209382e+00 2.0468099168588210e+00 1 0 0
93 2 7.5221233891521457e+00 2.1270707850577816e-01 1.9503514554156758e+00 1 1 0
145 3 1.0704221885132283e+01 4.3218764140493365e-01 3.2791186013933875e+00 1 1 0
113 2 9.8513478655010047e+00 1.8175496033903866e+00 2.4212824823223431e+00 1 0 0
114 2 1.1569663040834746e+01 1.7961804861008950e+00 4.3271308670021646e+00 1 0 0
109 3 1.0808505999697772e+01 3.4245920602736137e+00 3.5924384707817034e+00 1 0 0
110 3 8.5374420656632530e+00 1.7522293597546608e+00 1.0673494792669973e+00 1 0 0
2 3 1.3087284483897189e+01 1.7434335610472216e+00 1.1425104175990570e+00 0 0 0
118 2 9.3197031405550348e+00 3.3792760054048769e+00 4.9808990335173942e+00 1 0 0
154 2 9.3372223966561982e+00 4.4294596792890301e-01 4.9996487644069294e+00 1 1 0
147 2 1.2116651533275213e+01 4.2747244479655450e-01 2.0098155422278228e+00 1 1 0
46 2 1.3842647403590554e+01 4.5175015190098372e-01 4.8641847531925313e+00 0 1 0
60 2 7.0022114717787352e+00 1.9800741829613369e+00 4.1379022888528683e+00 1 0 0
120 2 1.1553962791312159e+01 1.8280481767174235e+00 9.1864667058695471e+00 1 0 0
124 2 9.2766149374341271e+00 3.3708334421069890e+00 9.6517809409465833e+00 1 0 0
115 3 1.0844854690433145e+01 3.3723911774646140e+00 8.1040399458574441e+00 1 0 0
117 2 1.2082319992145379e+01 3.2610777603854424e+00 6.7445570623763880e+00 1 0 0
14 3 1.3203003022255190e+01 1.7583110975835134e+00 1.0489820141553333e+01 0 0 0
119 2 9.7858536369267135e+00 1.7467831289425357e+00 7.4506640453259170e+00 1 0 0
122 3 8.4063012066499798e+00 1.9328583070250132e+00 1.0489680280969667e+01 1 0 0
160 2 9.3823663545326053e+00 3.0539105869177308e-01 9.6703466676316712e+00 1 1 0
63 2 7.4433365148470685e+00 3.2734498164731489e+00 6.7892955090477418e+00 1 0 0
99 2 7.5323142022459271e+00 2.8740322643413246e-01 6.8277207047797130e+00 1 1 0
153 2 1.2071680696773916e+01 3.6040991942507539e-01 6.8140429347599945e+00 1 1 0
151 3 1.0786044755895409e+01 3.4539188015055161e-01 8.4225142546238185e+00 1 1 0
8 3 1.3093972838823172e+01 1.7103264065993873e+00 5.9584865045787607e+00 0 0 0
66 2 7.1495274640756712e+00 1.7290376253159132e+00 9.0239478898699215e+00 1 0 0
116 3 8.5996441874737695e+00 1.7569646331810405e+00 6.0405748429397406e+00 1 0 0
16 2 1.3952156038919791e+01 3.1909089027700621e+00 9.6192918280642452e+00 0 0 0
157 3 1.0767458874249135e+01 4.0289806049726778e-01 1.2623596440285425e+01 1 1 0
214 1 1.2850962267926743e+01 7.6572307565769770e-01 1.4130654024820494e+01 1 2 0
126 2 1.1674132399716610e+01 1.6506471293680742e+00 1.3636108986974586e+01 1 0 0
492 2 9.3130206289084718e+00 4.2631176366431955e-01 1.4647544732400855e+01 1 -2 0
125 2 9.7647621212910245e+00 1.7913519992859275e+00 1.2030142097488271e+01 1 0 0
251 1 8.5029302172753471e+00 2.9309795121918270e+00 1.4138085302851222e+01 -7 5 0
121 3 1.1056337552909826e+01 3.2225862122315241e+00 1.3053070455489094e+01 1 0 0
252 2 9.3640682178997068e+00 3.1389846259788907e+00 1.4582381055057812e+01 -7 5 0
215 1 1.3886967209120717e+01 9.2361924320147892e-01 1.5255277976297471e+01 1 2 0
250 1 9.5152039682308551e+00 2.2908291039093194e+00 1.4998705543149519e+01 -7 5 0
216 2 1.3722642033743485e+01 3.2081825731042352e-01 1.4466797991171171e+01 1 2 0
69 2 7.3746768583566791e+00 3.2849426290297057e+00 1.1428676209049033e+01 1 0 0
105 2 7.4400236439033529e+00 4.9959670330829509e-01 1.1448215089060071e+01 1 1 0
123 2 1.2110400095623762e+01 3.1623915599534076e+00 1.1514183696713381e+01 1 0 0
472 1 7.7572575738224652e+00 4.2128057804501218e+00 1.6056158279898973e+01 1 -5 0
159 2 1.2197126371149816e+01 2.7276330850699682e-01 1.1511795151865615e+01 1 1 0
428 1 8.2887675413454218e+00 2.2103602318556161e+00 1.9406373365606779e+01 -2 -7 0
369 2 1.2901138492116285e+01 3.3341160165843924e+00 1.8263541511237396e+01 -2 -3 0
206 1 8.0274311925555271e+00 8.7314762907062027e-01 1.7589159342676048e+01 -5 -1 0
392 1 1.2684192213714830e+01 2.2846980584913834e+00 2.1502666773454276e+01 -3 -2 0
393 2 1.2738337579082812e+01 1.8226576453476893e+00 2.0649515469472689e+01 -3 -2 0
541 1 1.0300943357991057e+01 8.5795950614796179e-01 1.7630857895624228e+01 1 7 0
429 2 8.3174696630596259e+00 3.0432018254361326e+00 1.9881992454344520e+01 -2 -7 0
367 1 1.2538946433126210e+01 2.9915687616565281e+00 1.9142416617656544e+01 -2 -3 0
207 2 8.6908923191662808e+00 7.0075747787287024e-01 1.8263737800798619e+01 -5 -1 0
188 1 1.3483656264660166e+01 2.2752839947854904e+00 1.7049770194404893e+01 -2 -3 0
368 1 1.2090733081420002e+01 3.6478111507954174e+00 1.7789595830892715e+01 -2 -3 0
391 1 1.1953408272507572e+01 1.2240923901225749e+00 2.0805912122968085e+01 -3 -2 0
451 1 9.2476026576815524e+00 3.2500084484746297e+00 2.1581738048202794e+01 1 7 0
234 2 1.0734863214132069e+01 6.3210053033239497e-02 2.1343991776700012e+01 -3 0 0
427 1 7.7581734908499902e+00 3.6128973687676074e+00 1.9356523242557348e+01 -2 -7 0
191 1 7.1478923089461492e+00 2.3438714013795012e+00 2.1668380071540437e+01 1 3 0
542 1 1.1691845406111797e+01 2.5593104224491581e-01 1.7292934288240559e+01 1 7 0
543 2 1.1054842590629374e+01 9.7429693124237593e-01 1.7056480254385228e+01 1 7 0
522 2 1.2197635022162933e+01 7.4806718591300025e-01 2.5306494769721041e+01 -4 1 0
521 1 1.2182336150538891e+01 1.2307437709002815e+00 2.6203181180991791e+01 -4 1 0
308 1 8.2756492049679480e+00 9.2884477673661592e-01 2.3186474214894488e+01 0 8 0
230 1 7.2940621930890277e+00 2.1555890646428155e+00 2.5936450346954462e+01 0 -8 0
307 1 9.1369500147265352e+00 9.9943809827424468e-01 2.4401178668116078e+01 0 8 0
312 2 1.2253845402932862e+01 2.9395576557937395e+00 2.3179292782538454e+01 0 5 0
260 1 1.3532267216118028e+01 7.3162180041093788e-02 2.4104889388233531e+01 -2 4 0
509 1 1.2824746915280450e+01 4.3247657625947120e+00 2.3790412163429149e+01 0 -1 0
442 1 9.7972536227627653e+00 2.2224788867795242e+00 2.6032460665870033e+01 2 2 0
444 2 9.0177837418706410e+00 1.5864405597498419e+00 2.5972992013200880e+01 2 2 0
309 2 9.0779051915097924e+00 4.5872931792972138e-01 2.3545145019099511e+01 0 8 0
310 1 1.2007067755615596e+01 2.0719277997426526e+00 2.3631921614840575e+01 0 5 0
311 1 1.1378858678475735e+01 3.2597947968885341e+00 2.3110672485184487e+01 0 5 0
443 1 9.0167964844304738e+00 9.3013057827814172e-01 2.6714731031825405e+01 2 2 0
453 2 9.6065165652123028e+00 3.9818150826828207e+00 2.2215310951834724e+01 1 7 0
237 2 1.0144184318438191e+01 4.0726018907514678e+00 2.7148503391970515e+01 -2 3 0
452 1 8.7726965463764603e+00 4.4109574392153332e+00 2.2475151397571508e+01 1 7 0
238 1 1.3728200400050348e+01 2.4327681800875633e+00 2.7190510240231855e+01 -6 -10 0
236 1 9.1823442312881411e+00 4.2249373336829805e+00 2.7497242980427028e+01 -2 3 0
232 1 1.0354341502775634e+01 1.2471507157276290e-01 2.2248150014251628e+01 -3 0 0
371 1 9.5125883269120362e+00 2.3868849211020353e+00 3.1126567459794202e+01 -3 -5 0
494 1 1.1710657133860687e+01 1.5031728921856644e+00 2.8386865705259801e+01 -4 3 0
476 1 8.2026872056423930e+00 1.0752848271856090e+00 2.9566280123575336e+01 -2 -1 0