LAMMPS data file via write_data, version 5 Jun 2019, timestep = 1020000

564 atoms
3 atom types

0.0000000000000000e+00 1.3161440743621954e+01 xlo xhi
0.0000000000000000e+00 8.9076089999999990e+00 ylo yhi
0.0000000000000000e+00 4.8394900000000000e+01 zlo zhi

Masses

1 1
2 16
3 47.86

Atoms # atomic

152 3 1.6818709914831917e+00 3.7097276816917555e+00 1.2974632380560460e+00 0 0 0
128 3 5.0106709413810657e+00 9.6490168052739689e-01 4.1957604181628927e+00 0 0 0
122 3 1.5199586030582550e+00 7.1710803162509096e-01 9.1904021794176438e-01 0 0 0
123 2 2.9219278310488805e+00 2.2941177356205862e+00 1.2126573512201893e+00 0 0 0
131 2 1.5888186304524263e+00 9.0186865710241837e-01 3.1794903897105540e+00 0 0 0
121 3 4.9495948617518701e+00 2.4597837118387487e+00 1.2091052657482417e+00 0 0 0
132 2 1.6025254027678912e+00 8.4320944151018262e-01 5.6211652419238503e+00 0 0 0
127 3 1.8206065906120301e+00 2.2976749238985783e+00 4.4024695322451723e+00 0 0 0
130 2 3.7009109480920750e+00 2.2921153964340064e+00 4.4271778027662334e+00 0 0 0
126 2 4.7681682820356723e+00 7.1378964735004580e-01 2.3911605554288191e+00 0 0 0
158 3 4.8987112503068619e+00 3.9573351369325778e+00 4.6687640337508070e+00 0 0 0
129 2 6.1441745305727995e+00 2.2638730990255729e+00 4.4244038135653350e+00 0 0 0
162 2 1.5346318358238666e+00 3.8097555811919985e+00 5.7232997763117677e+00 0 0 0
161 2 1.4531035449960228e+00 3.6954436586067363e+00 3.1184977239389049e+00 0 0 0
156 2 4.9340042013829670e+00 3.8878721922852710e+00 2.4790077247054700e+00 0 0 0
124 2 3.8342704771462338e-01 2.3407614404424395e+00 9.0889880144273283e-01 0 0 0
138 2 4.9350115938803469e+00 7.7603089222139465e-01 9.0376758927026000e+00 0 0 0
133 3 4.7172340480525534e+00 2.2283985814699827e+00 7.9078602044280464e+00 0 0 0
167 2 4.9226942483668115e+00 3.7819706629254166e+00 6.5873185211607721e+00 0 0 0
137 2 4.9320573574056050e+00 8.0102833579541466e-01 6.5129783011558295e+00 0 0 0
134 3 1.5231013004381198e+00 9.5893084821661390e-01 7.6284483890391162e+00 0 0 0
141 2 6.2224697209874344e+00 2.2870982871097456e+00 1.1072038160675056e+01 0 0 0
135 2 2.9092556172328181e+00 2.4192423281648980e+00 7.5562929064515698e+00 0 0 0
142 2 3.6489556135381886e+00 2.3507076044180759e+00 1.1074352488310149e+01 0 0 0
143 2 1.6785102951533442e+00 1.0025144702951194e+00 9.6604957502889643e+00 0 0 0
139 3 1.5505405940585577e+00 2.2526947895248526e+00 1.0970187686748105e+01 0 0 0
140 3 4.8555021967210514e+00 9.4604620705266462e-01 1.1141393522866981e+01 0 0 0
168 2 4.8676073416879797e+00 3.8596144704294151e+00 9.1082396658386706e+00 0 0 0
164 3 1.4913995316954993e+00 4.0301652939089685e+00 7.8659493313263686e+00 0 0 0
173 2 1.7289128937575797e+00 3.9949527400126019e+00 9.7027186080000547e+00 0 0 0
170 3 5.0547625881960299e+00 3.8213127639032538e+00 1.1177231304731867e+01 0 0 0
136 2 3.1191101250056658e-01 2.4162359726876539e+00 7.7561554086299251e+00 0 0 0
287 1 1.3768744627794782e+00 1.9318284574265041e+00 1.6595118554995018e+01 3 2 0
149 2 4.8867092644353631e+00 7.7905941407002377e-01 1.3049349185542649e+01 0 0 0
179 2 5.0440612945242744e+00 3.7503936862331209e+00 1.3034437172275469e+01 0 0 0
144 2 1.3331584065778168e+00 8.4184338678047799e-01 1.2254227806021358e+01 0 0 0
147 2 2.8226137741344441e+00 2.1937752202520255e+00 1.4237898375162457e+01 0 0 0
501 2 1.2596908433824272e+00 9.6999683708629780e-01 1.6310471495332880e+01 -3 7 0
148 2 3.2868821138831661e-01 2.3351674363953827e+00 1.4150635204097085e+01 0 0 0
174 2 1.4878957100195773e+00 3.8000316690430358e+00 1.2326483383413549e+01 0 0 0
146 3 1.5425341543254771e+00 7.8010182921973470e-01 1.4156059274666685e+01 0 0 0
145 3 4.7457415820826538e+00 2.2229997698670600e+00 1.4485112886135656e+01 0 0 0
150 2 4.9660665272428304e+00 8.1828965598042491e-01 1.5609010684206025e+01 0 0 0
224 1 4.8494606894290371e+00 4.0851567438074623e+00 1.6662458245565478e+01 1 -3 0
176 3 1.5314006484846994e+00 3.8533116537779804e+00 1.4429814943305944e+01 0 0 0
288 2 1.5626377117865498e+00 3.5609289860070379e+00 1.6394216204452086e+01 3 2 0
180 2 4.9704865823380091e+00 3.8195305623764471e+00 1.5687299403885632e+01 0 0 0
488 1 5.0020513835217830e+00 3.6363704066952579e-01 1.7196505259378853e+01 7 -3 0
499 1 2.3459556071619578e-01 8.7191889064675221e-01 1.6295103933336424e+01 -3 7 0
500 1 7.8171261697463690e-01 4.0028240234407040e+00 1.6839443281256543e+01 -3 7 0
455 1 1.9197793281582394e+00 2.7884214878751806e-01 1.8001238717623934e+01 8 2 0
300 2 4.5732965320549672e+00 2.8791616389089150e+00 2.1748504914028818e+01 -1 8 0
292 1 9.9076330446385086e-01 1.4100038632897200e+00 2.2578458088520250e+01 -2 -4 0
302 1 2.0925817373675764e+00 3.3663091035082995e+00 1.9855450501112230e+01 4 -6 0
294 2 1.8813584637929943e+00 1.8929397682653784e+00 2.2693603120575769e+01 -2 -4 0
293 1 2.5415424815363874e+00 1.3307795504598439e+00 2.3166372145491970e+01 -2 -4 0
234 2 5.9278395123933052e+00 2.1865479471366553e+00 1.9544214907490566e+01 7 -6 0
454 1 2.2811207809454497e+00 1.2625335529261348e+00 1.9174652527385138e+01 8 2 0
411 2 5.1171327311721901e+00 4.4414768591770075e+00 1.8295353969857537e+01 3 -2 0
232 1 5.7634170314079718e+00 1.3355881070129481e+00 1.9052501683177784e+01 7 -6 0
301 1 1.9329310629884293e+00 2.2173524140489689e+00 2.0994586492950251e+01 4 -6 0
303 2 1.7212508228191326e+00 2.4593670201695246e+00 2.0071204274059479e+01 4 -6 0
298 1 5.0190648925289931e+00 3.7544457394127324e+00 2.2054882425547010e+01 -1 8 0
403 1 5.4650057637009235e+00 3.5547017232779980e+00 1.8684115714501662e+01 1 -3 0
233 1 5.3457109403441816e+00 2.4625891316502049e+00 2.0330506259577948e+01 7 -6 0
251 1 1.9442747122363593e+00 3.4487796081372561e+00 2.3501322619543284e+01 2 3 0
299 1 4.7303902688623642e+00 2.2270554344594582e+00 2.2384688174999059e+01 -1 8 0
456 2 2.2582556521979660e+00 2.7995097000959407e-01 1.8870714805265479e+01 8 2 0
252 2 1.6913851820565817e+00 4.3095188664027280e+00 2.3994839636515287e+01 2 3 0
487 1 4.0852837483569502e+00 5.1930695598459309e-02 1.8509050814249363e+01 7 -3 0
361 1 3.6626389225916589e-01 4.1653357921918825e+00 2.9627297333385382e+01 1 -8 0
276 2 4.1709489776285746e+00 1.0928547647645088e+00 2.8749796891708446e+01 1 6 0
259 1 4.0004572016062907e+00 7.4659589027903997e-03 2.4614783558422587e+01 0 0 0
328 1 1.1495061931998594e+00 4.7749672942556459e-01 2.9024789622618659e+01 2 2 0
209 1 5.3662870021355491e-01 2.6095803778025166e+00 2.5500718229712199e+01 -1 3 0
320 1 4.2467723520585006e+00 1.3212035020798054e+00 2.5286241111901678e+01 1 1 0
326 1 5.0422035723431491e-01 4.1961527528871345e+00 2.7238410342450152e+01 -1 2 0
330 2 1.2398054205271918e+00 8.3561114194928432e-01 2.8102392429583052e+01 2 2 0
275 1 4.6352116249071624e+00 1.5386488180500502e+00 2.8074141322493091e+01 1 6 0
350 1 5.9463316346527817e+00 1.3639938632992394e+00 2.6301913960019768e+01 4 2 0
208 1 1.3778396159391262e+00 2.2747987283641700e+00 2.6900787480491012e+01 -1 3 0
351 2 5.4678655675953962e+00 2.1248120836420603e+00 2.6593074974031296e+01 4 2 0
210 2 1.2949684827108103e+00 2.9375228246842351e+00 2.6123074547992136e+01 -1 3 0
274 1 3.2047562468531243e+00 1.0148707611471690e+00 2.8470467798577854e+01 1 6 0
250 1 1.9030743019693204e+00 4.0518605277386737e+00 2.4945576047694171e+01 2 3 0
349 1 5.6428274702676884e+00 2.9836239858537321e+00 2.6144685131751885e+01 4 2 0
441 2 3.9728296061323456e+00 9.7398103256146074e-01 2.4379239091883161e+01 5 6 0
329 1 1.1370159694261526e+00 2.0884556543246398e-02 2.7625107763431938e+01 2 2 0
359 1 4.1952521758522918e+00 1.7775243284962909e+00 3.0241134030118424e+01 -1 7 0
478 1 5.3109539343692127e+00 4.3860826737255953e+00 3.4520161996004575e+01 0 3 0
545 1 3.1337302997668552e+00 1.5596844448509477e+00 3.4788175516328053e+01 0 -1 0
512 1 5.3232901004759787e+00 7.7894938938468905e-01 3.3610473530147331e+01 6 -2 0
344 1 1.3314706553137112e+00 3.3303817681313214e-01 3.3713834659273850e+01 6 -4 0
362 1 9.4736840441019432e-01 3.3501945587818827e+00 3.0779292461758370e+01 1 -8 0
422 1 4.9252832985926336e+00 1.3529499253269723e+00 3.1639335420773410e+01 1 8 0
378 2 2.4191147017776138e+00 3.9495956203037532e+00 3.2039221871673774e+01 2 -2 0
426 2 5.7579995372153263e+00 3.8913495786359137e-01 3.2823972241301988e+01 7 -9 0
377 1 2.9001719489223552e+00 3.1601905377913835e+00 3.2039588756218691e+01 2 -2 0
343 1 6.1004655208887970e-01 1.6588252610617580e+00 3.3459452691679424e+01 6 -4 0
492 2 6.2489946134348804e+00 4.1337489424087561e+00 3.2096465156627161e+01 -1 2 0
546 2 3.9597956748914989e+00 1.2639184159765753e+00 3.5235383818677775e+01 0 -1 0
305 1 4.1633019706539685e+00 1.8316358408001363e+00 3.6062015107822880e+01 -1 -3 0
491 1 5.5141250267512998e+00 3.4987214112063509e+00 3.1873199454689690e+01 -1 2 0
318 2 1.4999279929061502e+00 1.2712280504559623e+00 3.3449845732202462e+01 7 -3 0
363 2 7.2279723697948411e-02 3.5710141299528289e+00 3.0395740638205599e+01 1 -8 0
423 2 4.3082914107910764e+00 2.0060356441891494e+00 3.1228292056643326e+01 1 8 0
404 1 1.7301938168961604e+00 4.5906184716961873e-01 3.1667222110551101e+01 1 -4 0
186 2 5.4033203195674631e+00 2.5451131138997001e+00 4.1689656070359270e+01 0 12 0
324 2 3.3354091516636815e+00 2.8404775666257911e+00 4.0095429892411232e+01 8 2 0
194 1 2.9220460368088434e+00 1.2443082308949609e+00 3.9737518766390203e+01 1 3 0
201 2 4.9680938157219767e+00 2.0300522793750502e+00 3.7657959805562314e+01 3 -8 0
323 1 2.5804592871364482e+00 3.4957312147574453e+00 4.0265669681263297e+01 8 2 0
200 1 4.2908249024321732e+00 2.3308069631986914e+00 3.8271148169299529e+01 3 -8 0
199 1 5.7816483701383801e+00 2.6019749263135976e+00 3.7871130521649434e+01 3 -8 0
184 1 6.3555956841270564e+00 2.6453436279528089e+00 4.1704727741414068e+01 0 12 0
185 1 5.2556330708429071e+00 1.5962496631385485e+00 4.1919568987577684e+01 0 12 0
322 1 4.1159478616448553e+00 3.0787429468607215e+00 4.0629474588963298e+01 8 2 0
195 2 2.4254525258425703e+00 5.0154540130202652e-01 3.9268085441251387e+01 1 3 0
221 1 5.3230237107185308e-01 7.9180364448373752e-01 3.9286602476131549e+01 3 0 0
237 2 1.3393112019630513e+00 4.0407828117573299e+00 4.2152066670168146e+01 2 2 0
235 1 5.7750695055844159e-01 3.5357522882008379e+00 4.2231441988820968e+01 2 2 0
396 2 7.6438777544314251e-01 1.0390303989015213e+00 4.3575334228372405e+01 5 5 0
236 1 1.9888259934111456e+00 3.9153761194005385e+00 4.2873741369949649e+01 2 2 0
155 2 4.9172244224691335e+00 3.7607770485556888e+00 4.8388434003051152e+01 0 0 -1
254 1 5.2924549373946794e+00 3.3957004043773891e+00 4.6404243503220783e+01 1 3 0
431 1 6.3062843796446097e+00 1.4189653165977034e+00 4.4956431145455426e+01 6 8 0
373 1 5.0917803151577978e-01 8.7357751228626712e-01 4.7242954838528867e+01 -1 -3 0
231 2 1.4368945350807749e+00 7.7051902476848544e-01 4.7423232450516032e+01 0 -2 0
345 2 1.7763495823864390e+00 3.9552310954814058e+00 4.7304276586299601e+01 0 0 0
125 2 5.0613790148195061e+00 7.4312606963909633e-01 4.8188790240933400e+01 0 0 -1
260 1 5.8923131153837813e+00 3.8493494490430407e+00 4.5093528867605563e+01 -1 3 0
524 1 3.7130706358808592e+00 1.9368452460658230e+00 4.5349153959129296e+01 7 19 0
449 1 4.1105570655589618e+00 2.7483497005568349e+00 4.3287557640607865e+01 -1 -6 0
365 1 4.4480285618142918e+00 8.8971825031323293e-01 4.7311118426881073e+01 1 2 0
450 2 3.4496055516955586e+00 3.0937234230805744e+00 4.3971769488022943e+01 -1 -6 0
229 1 1.0232939432587687e+00 3.5731002759489083e+00 4.6766736712131397e+01 0 -2 0
527 1 2.6796961685313700e+00 1.6977166921672944e+00 4.6563997113710400e+01 0 5 0
525 2 3.5477894150321401e+00 1.4986933471513717e+00 4.6197880118969131e+01 7 19 0
448 1 3.8092725442656783e+00 3.9420834504725151e+00 4.4238756608621976e+01 -1 -6 0
261 2 5.9812379812681096e+00 3.1409674601869235e+00 4.5805738835379124e+01 -1 3 0
394 1 9.1698634192440856e-02 8.9571741544803485e-01 4.2866826006823459e+01 5 5 0
395 1 3.1336246797757328e-01 1.4436897386134266e+00 4.4331188651637987e+01 5 5 0
102 2 1.5976149246865601e+00 6.7390758139838818e+00 5.6038713397025202e+00 0 -1 0
153 2 2.9216769554507986e+00 5.2033323660422059e+00 1.1441092091266789e+00 0 0 0
91 3 4.9045688044637776e+00 8.1593899661310392e+00 1.0257754683256972e+00 0 -1 0
96 2 4.9324521227051443e+00 6.7374857750670776e+00 2.4256620436387895e+00 0 -1 0
151 3 4.8880384629206564e+00 5.2968938114466368e+00 1.2471335868126503e+00 0 0 0
92 3 1.6186469892342450e+00 6.6345521987862437e+00 1.2483341062284408e+00 0 -1 0
157 3 1.5188270888264053e+00 5.2219042884656632e+00 4.4997589577423422e+00 0 0 0
98 3 4.8515275026290610e+00 6.8992880234878129e+00 4.4589755623585834e+00 0 -1 0
101 2 1.6109956272166557e+00 6.7872891880387893e+00 3.2232949037509622e+00 0 -1 0
160 2 3.6353193294195880e+00 5.2991950236653667e+00 4.4389258655391366e+00 0 0 0
159 2 6.2080536706335563e+00 5.2313697585785084e+00 4.4842000521312331e+00 0 0 0
100 2 3.5974824901143112e+00 8.2675282517741380e+00 4.5242343196360499e+00 0 -1 0
97 3 1.6221411650210313e+00 8.2364035944840079e+00 4.2909931375683490e+00 0 -1 0
93 2 2.8850686155684291e+00 8.2963734494072181e+00 9.5813605056366380e-01 0 -1 0
99 2 6.2341961521855573e+00 8.2744712467406316e+00 4.5355340683482028e+00 0 -1 0
154 2 4.8310977934769078e-01 5.3186967126503699e+00 1.1252348162784038e+00 0 0 0
94 2 2.9728958701149111e-01 8.2573352545412266e+00 1.2473132084075449e+00 0 -1 0
165 2 2.9353603044534631e+00 5.4189518863211514e+00 7.6715813431932185e+00 0 0 0
104 3 1.7743616777507507e+00 6.8960806105580179e+00 7.6713762240169627e+00 0 -1 0
108 2 4.9119778887313839e+00 6.6811075276732010e+00 9.0588219496279141e+00 0 -1 0
107 2 5.1280758775467410e+00 6.7211001357769522e+00 6.5407869300965862e+00 0 -1 0
111 2 6.3614516814840760e+00 8.1435755782026202e+00 1.1019270732283932e+01 0 -1 0
171 2 6.2530348426604787e+00 5.2707562319093846e+00 1.1020929562354034e+01 0 0 0
113 2 1.7212072352435361e+00 6.7819335645055059e+00 9.6575156688138737e+00 0 -1 0
110 3 4.9008930264100687e+00 6.9470698041194385e+00 1.1078751686961427e+01 0 -1 0
169 3 1.7980093109869382e+00 5.2178982337041173e+00 1.1113807809585504e+01 0 0 0
172 2 3.6569255203867996e+00 5.2792413293341864e+00 1.1261424762225840e+01 0 0 0
163 3 4.8827541939857646e+00 5.2273196485371969e+00 7.8801763836342058e+00 0 0 0
105 2 2.9014764683132777e+00 8.3603066365515541e+00 7.6444892429734166e+00 0 -1 0
103 3 4.9540461248221259e+00 8.2728879748363635e+00 7.5568290204379940e+00 0 -1 0
109 3 1.5688062118255837e+00 8.2181236601813694e+00 1.0806632669444401e+01 0 -1 0
112 2 3.6681662403310886e+00 8.2950894433309639e+00 1.1048978389726306e+01 0 -1 0
106 2 3.4318471318525934e-01 8.2167613902262229e+00 7.7994288079116627e+00 0 -1 0
166 2 3.0540120530561404e-01 5.3357795997526472e+00 7.6955252159719487e+00 0 0 0
175 3 4.7986818631100077e+00 5.3721313747576467e+00 1.4299208285007197e+01 0 0 0
118 2 4.2526455045645595e-01 8.1389329619191972e+00 1.4357660535279919e+01 0 -1 0
225 2 2.2207860597820601e+00 6.7427190356677524e+00 1.6467333093097686e+01 1 -4 0
247 1 1.8636608522987503e+00 5.9041709898964569e+00 1.6800343830344087e+01 1 -1 0
114 2 1.6000611870127750e+00 6.7761900148975291e+00 1.2306864676196794e+01 0 -1 0
120 2 4.8421044194953460e+00 6.6271337210577341e+00 1.5618621568419869e+01 0 -1 0
116 3 1.6225819100381424e+00 6.7782051119795073e+00 1.4209113790206841e+01 0 -1 0
117 2 2.9755557649261073e+00 8.2671863046757679e+00 1.4382418200864057e+01 0 -1 0
119 2 5.1242719867560886e+00 6.8145619861384219e+00 1.3081904067306132e+01 0 -1 0
178 2 3.7550440170628979e-01 5.3609033289071277e+00 1.4525819343985345e+01 0 0 0
177 2 2.8635953516916315e+00 5.1531864841993205e+00 1.4046509645110490e+01 0 0 0
115 3 5.0255949999920650e+00 8.2047112852574102e+00 1.4548316517874708e+01 0 -1 0
451 1 3.1779710171729878e+00 6.6408972030895690e+00 1.6414721629831927e+01 -5 -2 0
489 2 5.0173795760780431e+00 8.8827031210503922e+00 1.8129533151983875e+01 7 -4 0
518 1 5.9131988029793074e+00 5.9472055262429668e+00 1.7989080168096674e+01 1 -4 0
206 1 2.1631453084727710e+00 5.7095570118239198e+00 1.9932244489652764e+01 4 -2 0
205 1 1.7066622522770378e+00 4.8450139714695144e+00 1.8684169897294026e+01 4 -2 0
358 1 2.2568897164071022e+00 7.8194057174789240e+00 2.0051847167978533e+01 -5 7 0
417 2 2.0093984021362590e+00 7.1886476064867741e+00 2.0834873372629936e+01 -6 4 0
401 1 5.1120989287006413e+00 6.1238220254256310e+00 2.2139941197851407e+01 -5 -4 0
402 2 5.6159831707679881e+00 5.5058662018774163e+00 2.1546385314946573e+01 -5 -4 0
272 1 3.0186151743761176e+00 5.7324524189985739e+00 2.3181812277774814e+01 3 2 0
400 1 5.2899883238251997e+00 5.4649178644881911e+00 2.0689172026020579e+01 -5 -4 0
304 1 9.8102693260753138e-01 7.1862646206809915e+00 2.0792631757125875e+01 -5 5 0
271 1 2.8487034146335550e+00 7.0809492645876126e+00 2.2327036460800652e+01 3 2 0
273 2 3.4764958481133945e+00 6.6063349498275574e+00 2.2951521343503842e+01 3 2 0
517 1 6.1400886658971183e+00 7.5062883974902830e+00 1.8225670873980707e+01 1 -4 0
207 2 2.4248026528194386e+00 4.9186176257573315e+00 1.9372994981816372e+01 4 -2 0
421 1 4.2862900046106640e+00 4.6502842161404354e+00 1.8820147417584455e+01 5 2 0
453 2 4.0731634489984190e+00 6.9802917231619386e+00 2.5517429414060434e+01 -6 -3 0
227 1 6.0528759674953019e+00 7.1419665052931460e+00 2.9165039615898802e+01 0 -2 0
457 1 1.2532393570980216e+00 6.4176841841884329e+00 2.7299196843772915e+01 -3 -12 0
528 2 3.3301036815511859e-01 4.8526481083905644e+00 2.7944993013946043e+01 1 -2 0
555 2 5.9462525435998774e+00 4.6973629712026597e+00 2.5929478530994707e+01 4 5 0
226 1 4.9408541672450790e+00 8.3809513262317061e+00 2.9116439437307172e+01 0 -2 0
228 2 5.2311524299636769e+00 7.5613829815197162e+00 2.9542868710618006e+01 0 -2 0
452 1 3.2893312862653992e+00 6.8147669954586840e+00 2.6162742398185454e+01 -6 -3 0
514 1 3.6213203244057275e+00 7.1019273707868775e+00 2.4656167806097709e+01 -2 0 0
278 1 3.8434092442435395e+00 6.6860386887056409e+00 3.0106003043376596e+01 -2 3 0
458 1 1.0123986355194707e+00 7.3452219549089017e+00 2.6024827527823824e+01 -3 -12 0
553 1 5.2340566160853150e+00 5.1631967396987974e+00 2.5505859340062656e+01 4 5 0
459 2 1.5973848621572533e+00 7.1702653540837540e+00 2.6779006122900654e+01 -3 -12 0
473 1 5.7433034055932497e+00 7.8334522178263155e+00 2.6019302752560979e+01 2 3 0
474 2 6.4160183082623057e+00 8.5453116619826517e+00 2.6230173957152903e+01 2 3 0
502 1 4.5073970293254755e+00 7.0586165449332121e+00 3.4475172349778063e+01 -1 -2 0
503 1 3.8264659148313789e+00 8.2780640431956574e+00 3.5129615548857494e+01 -1 -2 0
433 1 4.6518358195082739e+00 6.3389031416393999e+00 3.1780625806938470e+01 -4 1 0
535 1 8.6954482057503080e-01 6.8970849455098815e+00 3.4128626615243107e+01 -1 -5 0
279 2 3.1032329178581222e+00 6.1874632030030954e+00 3.0602991540262973e+01 -2 3 0
434 1 5.7731290940299100e+00 5.8988804761795297e+00 3.2684906046098646e+01 -4 1 0
504 2 3.7634320408741599e+00 7.2629909361226810e+00 3.5045191588387773e+01 -1 -2 0
536 1 8.5676580748460196e-01 7.8154436846004209e+00 3.5401593600698448e+01 -1 -5 0
376 1 2.8249336949907513e+00 4.5686232486085583e+00 3.1414238126027129e+01 2 -2 0
424 1 5.1666229039153482e+00 8.4952546710012573e+00 3.2671580402048392e+01 7 -10 0
435 2 5.2288357946455823e+00 6.7056940386615524e+00 3.2493458343825068e+01 -4 1 0
537 2 6.5105880946754568e-01 7.7655201603840274e+00 3.4446082828769242e+01 -1 -5 0
479 1 6.0747494264711159e+00 5.3753458918589745e+00 3.5366932729916257e+01 0 3 0
248 1 4.8996589138988100e-01 8.5504995921590954e+00 3.1184242245336286e+01 3 -1 0
418 1 2.4297962537104807e+00 6.8315950072926377e+00 3.0856080012135298e+01 0 7 0
476 1 1.6008306799799639e+00 4.7081862874631000e+00 3.5281876283036901e+01 5 2 0
477 2 1.2431515148798356e+00 4.9809723582106162e+00 3.4397291070327768e+01 5 2 0
475 1 1.7303922304687744e+00 4.5586263341664859e+00 3.3690880290081161e+01 5 2 0
480 2 5.4481785279263981e+00 4.6020471988961225e+00 3.5446393605266110e+01 0 3 0
357 2 1.4107345947774621e+00 8.8734116183416774e+00 3.0891982647425369e+01 0 -2 0
493 1 3.9061702390955038e+00 4.5445301741990694e+00 3.6028003804764637e+01 4 15 0
516 2 4.7865665887427102e+00 5.8516769420894352e+00 4.2092440495833458e+01 -1 -1 0
198 2 4.7471513056976438e+00 7.8775453928316681e+00 3.7871719951455525e+01 1 6 0
462 2 2.3184644498906217e+00 6.9362671618153184e+00 4.0666932285015342e+01 -1 5 0
368 1 2.2175457360224207e+00 6.0197782471307670e+00 4.0491732006672557e+01 2 1 0
548 1 5.1850600318383506e+00 6.0741269887261780e+00 3.8861317497425809e+01 -1 5 0
461 1 2.9398387371979404e+00 7.0587129754384863e+00 4.1401719494279732e+01 -1 5 0
485 1 6.5244138492153523e+00 8.3961985505176209e+00 3.9239663588035675e+01 0 -3 0
249 2 3.0797248218079414e+00 4.6855272326560335e+00 3.6658831067043828e+01 1 4 0
388 1 1.9943693499967212e+00 8.1566907650459459e+00 3.7647353988723971e+01 -4 -2 0
526 1 5.2732545761956819e+00 5.6339600243635912e+00 4.1249002235124877e+01 1 -4 0
389 1 1.3064394821282470e+00 6.7839214143548077e+00 3.7976273146642576e+01 -4 -2 0
390 2 1.6251679103318504e+00 7.3566227545576943e+00 3.7207762676117689e+01 -4 -2 0
197 1 4.0138060204283699e+00 8.3710422005296703e+00 3.8287665029207062e+01 1 6 0
549 2 5.6812402052841309e+00 5.3773994624568093e+00 3.9259764073120756e+01 -1 5 0
562 1 1.8800646137610268e+00 4.5973478563489065e+00 3.7962473178516078e+01 3 0 0
196 1 4.5516680279627186e+00 7.6680548341837707e+00 3.6947347194174561e+01 1 6 0
393 2 1.3743686740660235e+00 4.9803769017340072e+00 3.8715877622900258e+01 -1 -6 0
547 1 5.4915201758649790e+00 4.6775009200349196e+00 3.8632616374760005e+01 -1 5 0
193 1 2.4287453458701025e+00 8.6428153379092763e+00 3.9896902739036655e+01 1 2 0
415 1 4.3274323505049744e-01 4.5582010760207767e+00 3.8581063792870694e+01 -1 0 0
256 1 3.0153648074401334e+00 5.6893878383273915e+00 3.6690525291309292e+01 1 -1 0
391 1 4.9370783858340470e+00 6.8198738463984689e+00 4.2235304900520354e+01 1 -5 0
332 1 5.9848857710259500e+00 5.2471500150232684e+00 4.3240179446352492e+01 1 -7 0
392 1 5.3792886760449470e+00 8.6228684241398899e+00 4.3572771188084104e+01 -1 -9 0
314 1 6.4129472549979383e+00 6.6441761006443398e+00 4.5399715589987657e+01 5 6 0
508 1 6.0770796791093291e+00 7.2603116495236097e+00 4.6822438501755052e+01 5 8 0
560 1 1.8121180918143220e+00 8.5924951448458238e+00 4.4080963041073545e+01 6 8 0
558 2 1.1319683949593455e+00 6.8094603370242011e+00 4.7482202132704181e+01 0 2 0
561 2 2.5819364067243464e+00 8.1979937637967879e+00 4.4632250424485349e+01 6 8 0
495 2 4.6535212166151325e+00 8.5930470880635799e+00 4.2904478724864937e+01 5 8 0
316 1 1.6988181695571264e-01 6.6363778469531951e+00 4.7430631046427948e+01 1 1 0
559 1 2.9496002533473353e+00 8.8791711723675952e+00 4.5236066106968195e+01 6 8 0
557 1 1.1602481550142250e+00 7.8391760363225416e+00 4.7204258436528988e+01 0 2 0
533 1 4.0511664339926892e+00 5.8301893241409255e+00 4.6459053808805010e+01 5 1 0
443 1 3.8286460068374273e-01 5.5819182108964700e+00 4.2669521871821232e+01 -5 -18 0
532 1 3.2374409607665036e+00 6.3446525906134594e+00 4.5258458708320134e+01 5 1 0
534 2 3.5681668629974688e+00 5.5465411947112129e+00 4.5673186393882929e+01 5 1 0
95 2 4.9962630560833778e+00 6.7653131290197024e+00 4.8257492565493166e+01 0 -1 -1
505 1 2.3356430338383714e+00 4.6339637753950171e+00 4.6764598230492041e+01 -1 4 0
494 1 3.8468862266460015e+00 8.4665765055267546e+00 4.3461161664336835e+01 5 8 0
333 2 6.5137232612239488e+00 5.3139542564749807e+00 4.4103621021906463e+01 1 -7 0
36 2 1.1525605274164700e+01 9.1679387372972465e-01 2.4296365836677380e+00 -1 0 0
33 2 9.3829650806587797e+00 2.2604194692608388e+00 1.1232156565816969e+00 -1 0 0
42 2 8.2099161430167129e+00 8.7055851252574190e-01 5.8015178262472036e+00 -1 0 0
72 2 8.0895351139776093e+00 3.9067198737236826e+00 5.8017868774371166e+00 -1 0 0
39 2 1.2777969323480093e+01 2.4232930539436088e+00 4.4459376436461948e+00 -1 0 0
41 2 8.0206202163363809e+00 9.3376195070435930e-01 3.3099007158488130e+00 -1 0 0
32 3 8.1604719170736963e+00 7.7893255386267712e-01 1.4128369660915994e+00 -1 0 0
40 2 1.0226677351495916e+01 2.3196300793690643e+00 4.5740903761707346e+00 -1 0 0
37 3 8.3707652613649106e+00 2.4257583199268784e+00 4.5894775353841633e+00 -1 0 0
31 3 1.1577180298811040e+01 2.1943109069032021e+00 1.1052297085452387e+00 -1 0 0
38 3 1.1706108168741702e+01 9.4769080957128626e-01 4.5061112244846333e+00 -1 0 0
68 3 1.1564350999367829e+01 3.9200455685153113e+00 4.3600911517486409e+00 -1 0 0
66 2 1.1475329241286763e+01 3.7840741628901036e+00 2.4429119353272202e+00 -1 0 0
62 3 8.1821505358314486e+00 3.6604814099725727e+00 1.3904209402912535e+00 -1 0 0
71 2 8.3114397013063783e+00 3.8142491465817443e+00 3.2879084583981992e+00 -1 0 0
34 2 6.8975889881980113e+00 2.2553631810262180e+00 1.3038750565145611e+00 -1 0 0
78 2 1.1473424414731388e+01 3.9249160714025577e+00 9.1038005717723376e+00 -1 0 0
53 2 8.4195961195000617e+00 8.2431921848114786e-01 9.8229713052675915e+00 -1 0 0
50 3 1.1428925758625981e+01 7.5214338771979150e-01 1.1142953192097234e+01 -1 0 0
49 3 8.2734086858685298e+00 2.3588936306700496e+00 1.1171295784047890e+01 -1 0 0
43 3 1.1520307751920518e+01 2.1406865032143454e+00 7.8685775976154035e+00 -1 0 0
52 2 1.0273938410258454e+01 2.3177541073301371e+00 1.1040880647053086e+01 -1 0 0
74 3 8.0962029736989436e+00 3.6884063547555370e+00 7.8627776570250747e+00 -1 0 0
47 2 1.1469608167498878e+01 9.0660884655958096e-01 6.5097569510797886e+00 -1 0 0
45 2 9.4572217208832683e+00 2.4805137629196681e+00 7.8954832017520538e+00 -1 0 0
44 3 8.2563217084254941e+00 7.9305641225878531e-01 7.8826485216060949e+00 -1 0 0
48 2 1.1471052373906277e+01 7.4397231079197679e-01 9.1275281948109548e+00 -1 0 0
51 2 1.2780012070525242e+01 2.3566321477578485e+00 1.0849893073507568e+01 -1 0 0
83 2 8.2144768330654951e+00 3.7684411163906928e+00 9.8780901175572708e+00 -1 0 0
77 2 1.1530151510081014e+01 3.8213853761112198e+00 6.4631102266626073e+00 -1 0 0
80 3 1.1564123026053103e+01 3.7988000350260815e+00 1.1122298421870907e+01 -1 0 0
46 2 6.8616722219595276e+00 2.2651047754436640e+00 7.8388259913443772e+00 -1 0 0
60 2 1.1721071206776642e+01 8.6979429120036600e-01 1.5595305842232133e+01 -1 0 0
59 2 1.1540361743200053e+01 8.2740636815994051e-01 1.3053973338728678e+01 -1 0 0
84 2 8.2234837835392582e+00 3.8205300282428083e+00 1.2329754172141071e+01 -1 0 0
57 2 9.5610737173088172e+00 2.3685188067730070e+00 1.4361157908521497e+01 -1 0 0
270 2 7.9713146198835449e+00 3.6901838319766265e+00 1.6495033673852575e+01 4 0 0
56 3 8.3067950926814014e+00 8.6546617748736965e-01 1.4222785685194408e+01 -1 0 0
319 1 8.8991789243237722e+00 9.6155686075737723e-01 1.7162112911173068e+01 1 1 0
89 2 1.1517297163352287e+01 3.8860279407384235e+00 1.3076423755665687e+01 -1 0 0
321 2 8.1040668527324957e+00 1.1481168633877807e+00 1.6603978456450893e+01 1 1 0
269 1 7.9585466051209650e+00 2.1607580638499817e+00 1.6670942508897614e+01 4 0 0
55 3 1.1545164370175863e+01 2.2624223251130600e+00 1.4417799419373454e+01 -1 0 0
90 2 1.1641329227524446e+01 3.8011820931539302e+00 1.5557216979790351e+01 -1 0 0
54 2 8.2468989978321581e+00 7.2367897118677316e-01 1.2357979756531556e+01 -1 0 0
86 3 8.0990816611281335e+00 3.8227759675400246e+00 1.4497613594730337e+01 -1 0 0
385 1 1.1300026995739387e+01 3.8038120694278259e+00 1.6492307429957236e+01 -1 0 0
216 2 1.0497235569272309e+01 3.6117360857221270e-01 1.8068320697746557e+01 5 8 0
58 2 6.9418468378866685e+00 2.2889793714590216e+00 1.4491209462336951e+01 -1 0 0
312 2 1.0256163146757665e+01 3.8415514000602111e+00 1.7913387393713055e+01 -1 -8 0
215 1 1.0750718800579547e+01 1.6372282566811983e-01 1.7128533262092926e+01 5 8 0
397 1 9.4374928554692605e+00 3.7860081911474874e+00 1.7442231091505157e+01 -2 -7 0
268 1 7.1065080905873410e+00 3.9022717919834968e+00 1.6817651303562343e+01 4 0 0
429 2 8.4940674589310401e+00 2.7512342076644680e+00 2.0287140236224875e+01 1 9 0
428 1 9.1937324361537822e+00 2.9352751091708020e+00 1.9627277654779110e+01 1 9 0
327 2 1.2124869328482138e+01 9.6581796078444160e-01 2.1889901178594354e+01 -5 2 0
436 1 1.0585181411156844e+01 3.6991825838304524e+00 2.1641500029631555e+01 -3 7 0
541 1 8.7932055936652809e+00 9.6265770746609869e-01 2.1705337844192908e+01 0 1 0
410 1 1.2209716358780261e+01 2.4710436441255140e-01 2.1246237324547124e+01 -3 -6 0
265 1 1.2007448621826242e+01 1.7889853087311658e+00 2.1327986947264776e+01 -5 -9 0
214 1 1.1222952125606811e+01 9.5368905599456288e-01 1.8458939428076917e+01 5 8 0
513 2 1.2459449912009610e+01 2.3529375650519468e+00 1.8381492191383618e+01 -1 0 0
427 1 7.6443108773397350e+00 2.4572895486485606e+00 1.9874753851061193e+01 1 9 0
440 1 1.0218406132624555e+01 4.7748519697380426e-01 2.1824360494704489e+01 -2 -5 0
356 1 8.4025450782366136e+00 3.8985593849353410e+00 2.1552454162501444e+01 1 -5 0
438 2 1.1481922015912200e+01 3.6557832782852899e+00 2.1182547270813046e+01 -3 7 0
387 2 9.3177680002561178e+00 1.9015772002972650e-01 2.2062333220086405e+01 0 0 0
463 1 1.2025618663804115e+01 2.1077345484856034e+00 2.3603512567201530e+01 -1 -11 0
223 1 1.1868209807273347e+01 3.0638269568704470e+00 1.8794873888468675e+01 0 -1 0
437 1 1.1909361010155720e+01 4.1790483700116203e+00 2.1920805585720974e+01 -3 7 0
530 1 1.3083901637138483e+01 2.2692238408019332e+00 1.9123339977055331e+01 0 3 0
382 1 1.2375981068420806e+01 4.8191354778824552e-01 2.5338380794564571e+01 3 4 0
381 2 8.2467604603771019e+00 1.0760783752617568e-01 2.8568252901606858e+01 0 5 0
496 1 9.7898135210248221e+00 3.7696688258183380e+00 2.8367613029833514e+01 -2 -5 0
334 1 9.1513980355277695e+00 2.5384419870569470e+00 2.5934791510007116e+01 0 2 0
267 2 1.1325980909144228e+01 1.7317313283264282e+00 2.9120837151413870e+01 2 -1 0
464 1 1.0955356347671620e+01 2.2491721763485026e+00 2.4600425759918028e+01 -1 -11 0
509 1 8.2452005259844459e+00 2.0354905704414068e+00 2.8247777832518381e+01 1 6 0
405 2 8.2276833290517946e+00 2.9029543960173978e+00 2.7719356610040791e+01 1 5 0
498 2 1.0373386527577678e+01 4.2773842419733841e+00 2.8965109024361105e+01 -2 -5 0
335 1 8.9319507082663137e+00 3.6178451077901004e+00 2.4705363980717767e+01 0 2 0
460 1 1.1190191898481801e+01 9.4822746628813037e-01 2.8448755277401617e+01 4 9 0