LAMMPS data file via write_data, version 5 Jun 2019, timestep = 1020000

528 atoms
3 atom types

0.0000000000000000e+00 1.1408130000000000e+01 xlo xhi
0.0000000000000000e+00 9.7477520000000002e+00 ylo yhi
-3.5807249999999868e-01 4.8101072500000001e+01 zlo zhi

Masses

1 1
2 16
3 47.86

Atoms # atomic

23 2 3.1725438507992552e+00 1.2981769233271030e+00 5.0388883900730619e+00 1 1 0
112 3 1.2446716022573037e+00 7.7720258668525799e-01 4.9392802016547908e+00 2 1 0
24 2 5.0122109774881691e+00 2.9894959156469789e+00 4.7585988243538990e+00 1 1 0
11 2 3.1919065658753336e+00 1.3788857059030890e+00 1.2116726173334609e+00 1 1 0
4 3 5.0950881149597684e+00 8.7562575823535971e-01 1.1597773706256072e+00 1 1 0
108 2 1.1931752903415660e+00 2.8225639303131325e+00 9.7811878971480903e-01 2 1 0
15 3 3.1801416504024367e+00 3.3073199970599911e+00 5.0041389043894320e+00 1 0 0
22 2 2.7471557062621534e+00 3.8081967339209495e+00 3.0358871989926839e+00 1 0 0
12 2 5.0270302996081568e+00 2.9669306937697244e+00 1.2061861642343918e+00 1 1 0
3 3 3.1009331085928560e+00 3.4033526908981777e+00 1.1647671611714250e+00 1 0 0
100 3 1.2920244804962928e+00 8.4205958808018777e-01 1.2145495702829991e+00 2 1 0
120 2 1.1872439260919034e+00 2.8834781149491455e+00 5.1109810406315637e+00 2 1 0
16 3 4.9619920841852352e+00 8.3495298287533204e-01 5.0393630859059968e+00 1 1 0
113 2 1.4343222132023374e+00 4.5330633960794597e-01 3.1524928303323985e+00 2 1 0
17 2 5.0012897278307200e+00 5.3319815137198967e-01 3.1381935843644215e+00 1 1 0
28 3 5.0578804223738061e+00 7.9810238261898969e-01 8.8342865054933704e+00 1 1 0
27 3 3.2025939703640640e+00 3.3520479999851189e+00 8.8287462058975823e+00 1 0 0
36 2 5.0077866206072379e+00 2.9413086254985163e+00 8.7089482622279970e+00 1 1 0
46 2 3.0526946990161150e+00 3.8018048057123348e+00 1.0719330386279797e+01 1 0 0
34 2 3.2018148536366238e+00 3.7070185581729409e+00 6.9237008506532147e+00 1 0 0
35 2 3.1267846232979979e+00 1.2520701357672372e+00 8.8116435978698693e+00 1 1 0
132 2 1.2946141351866012e+00 2.8721812820486949e+00 8.8173548363665422e+00 2 1 0
124 3 1.2761577391035730e+00 9.1803977018816996e-01 8.7363262835342024e+00 2 1 0
41 2 5.1688521668986827e+00 6.7442918995851620e-01 1.0650644011567310e+01 1 1 0
29 2 5.2648840224305911e+00 5.0255728095128860e-01 6.9363758105356750e+00 1 1 0
125 2 1.1663555419796876e+00 4.3354196638032294e-01 6.9091823166217345e+00 2 1 0
137 2 1.2739006366305294e+00 6.1903411920618767e-01 1.0634499684573333e+01 2 1 0
40 3 5.0815932922692939e+00 1.0659650245366499e+00 1.2573973449753089e+01 1 1 0
414 2 1.4355107680272368e+00 7.7500539801125101e-01 1.4580837213688456e+01 2 2 0
136 3 1.4752353937449525e+00 8.5475797662232045e-01 1.2395234185371498e+01 2 1 0
48 2 5.0878281507791483e+00 3.0162321041723952e+00 1.2737737409696024e+01 1 1 0
423 2 3.0857948668216593e+00 3.6542938542607968e+00 1.4700505426145092e+01 0 0 0
292 1 1.4589460522661966e+00 3.6920598460691494e+00 1.7204779333358662e+01 -5 1 0
251 1 3.8495529880373529e+00 4.0317054835005610e+00 1.5265333182604396e+01 0 6 0
144 2 1.3799449731232531e+00 2.9652518622267361e+00 1.2795801503372600e+01 2 1 0
184 1 3.5312799436613513e+00 4.7560183390448394e+00 1.7601655622924930e+01 -3 -1 0
47 2 3.2576371774635446e+00 1.2928955074535626e+00 1.2758373752685205e+01 1 1 0
39 3 3.2087701695151059e+00 3.5187837713970671e+00 1.2585132996805514e+01 1 0 0
273 2 9.5705656080878043e-01 2.8170116227856226e+00 1.6895659058226581e+01 1 -2 0
198 2 4.7550201688719094e+00 2.2625332447418169e+00 1.7210879040609012e+01 -1 0 0
500 1 4.8430137893690759e+00 1.2558502858289127e+00 1.5740938772607560e+01 2 1 0
320 1 2.8860697959384871e+00 2.8129203641015463e+00 1.5087703560144799e+01 6 0 0
197 1 5.6690151417470691e+00 2.5024007768815739e+00 1.7599176785359603e+01 -1 0 0
271 1 5.5573485150534752e-01 1.0218317156423731e+00 1.4889544259206431e+01 1 -2 0
272 1 6.4601048642331615e-01 2.3945265037329286e+00 1.7748048816209394e+01 1 -2 0
492 2 4.8510630655124301e+00 7.1141651135778328e-01 1.4953650758805875e+01 1 2 0
196 1 4.4787500039226096e+00 1.4136149702793648e+00 1.7640949645035956e+01 -1 0 0
344 1 5.5988969962303459e-01 2.4762547159847124e+00 2.2736940835148111e+01 -1 0 0
282 2 1.3639208853000215e+00 1.8777823020354496e+00 2.2640169097271428e+01 0 -3 0
229 1 9.7347413677897399e-01 5.7492984540760750e-01 2.2998675722760201e+01 -1 2 0
364 1 4.8169193490086402e+00 3.8792383991710711e-01 2.1784521926594405e+01 -1 4 0
439 1 2.8815391972415223e+00 2.7931602605219292e+00 1.9863080417984943e+01 0 4 0
413 1 2.8363860533648557e+00 4.7604351869462027e+00 2.2667356352934522e+01 1 4 0
353 1 1.9419547719528212e+00 2.0183172254621744e+00 2.3420317289981021e+01 -1 -5 0
328 1 5.4915054377933705e+00 4.3992572096945430e+00 2.1954352870394509e+01 1 2 0
521 1 2.5120851647743550e+00 1.8967109138121803e+00 2.1141316564068124e+01 1 4 0
386 1 8.4975900482330058e-01 1.7802189208424608e+00 1.9855944239517022e+01 3 3 0
329 1 5.2889298533012647e+00 3.3801814915106729e+00 2.3069233987369010e+01 1 2 0
330 2 5.6938742168007970e+00 4.2515381058194048e+00 2.2908177259691158e+01 1 2 0
249 2 2.8611290969890755e+00 1.8876821657134766e+00 2.0161641899257685e+01 0 2 0
366 2 4.9049214785316879e+00 8.2350853971247562e-01 2.2642764993615316e+01 -1 4 0
396 2 5.3946799805214649e+00 4.6129950675307043e+00 1.9943483338568644e+01 -5 -3 0
349 1 3.6799850293988348e+00 5.0549574645648243e-01 2.0039343215763289e+01 0 9 0
339 2 3.0927059787362117e+00 2.5798500470230783e+00 2.7499692550444440e+01 -5 -4 0
194 1 3.2815739143791238e+00 1.9277164316846733e+00 2.5558464607182248e+01 2 3 0
488 1 3.9826441907293120e-01 3.3830322242209228e+00 2.6955506378738448e+01 -5 3 0
338 1 2.3522576505460706e+00 3.1950202120052533e+00 2.7348622652024378e+01 -5 -4 0
209 1 3.8861599460097391e+00 3.0780655948553055e+00 2.7588492298414494e+01 -4 2 0
220 1 4.0441559918941126e+00 1.8332445630023104e+00 2.4128536226329683e+01 0 -3 0
520 1 5.3893034213904949e+00 4.5542487282290800e+00 2.7341166269156236e+01 -1 6 0
337 1 2.8090497387811357e+00 1.3612591088610231e+00 2.8823611528243173e+01 -6 -3 0
522 2 5.2964981744077599e+00 4.4351821452086133e+00 2.8307305222006669e+01 -1 6 0
345 2 2.5236572668489141e+00 1.0424423039585571e+00 2.9689794943266222e+01 -6 5 0
528 2 3.3108367387387863e+00 2.3203346983205324e+00 2.4668877047375727e+01 -2 -1 0
380 1 9.7919954934604025e-01 4.8250300526965999e+00 2.6604983746736409e+01 -5 -1 0
497 1 5.5004739808898737e+00 4.8298628818935718e+00 2.4899745112879014e+01 -3 -4 0
489 2 8.4938909242097627e-01 4.1367983527983032e+00 2.7348337222647881e+01 -5 3 0
178 1 1.7687008952510080e-01 1.2679060321706390e+00 2.6219246144756131e+01 -3 -1 0
499 1 2.0539758635596114e-01 4.3751673225542032e+00 2.3992653818415430e+01 3 1 0
523 1 5.5988890409039698e+00 3.4821373198751164e+00 2.8429455296201560e+01 -2 1 0
174 2 2.3355110401118049e+00 3.1297193746980496e+00 3.4515731126975275e+01 0 0 0
509 1 4.6273220806447393e+00 4.4718334614261659e+00 3.3690894567774428e+01 -5 5 0
323 1 2.8859238462142378e+00 3.8251652331569495e+00 3.2919364307684653e+01 -5 0 0
322 1 3.4347844060948791e+00 4.6705660813526091e+00 3.1667575483398640e+01 -5 0 0
324 2 3.7260861294684191e+00 3.9749111405359154e+00 3.2339735632504798e+01 -5 0 0
460 1 4.3055300883592835e+00 2.6324633601313900e+00 3.1544512554826024e+01 -5 -1 0
343 1 3.3023130879285807e+00 1.3206047351843280e+00 3.0319756104350770e+01 -6 5 0
173 1 2.2039259694113094e+00 2.1990950491515382e+00 3.4580063206444471e+01 0 0 0
172 1 1.5884452325631713e+00 3.3660157786382587e+00 3.5080018669549190e+01 0 0 0
448 1 4.1188036156264181e+00 4.1268428393253309e+00 3.5011511121979467e+01 -3 -1 0
462 2 4.7017205309263801e+00 1.7760244799875988e+00 3.1191952062982296e+01 -5 -1 0
450 2 4.9563071595632850e+00 4.4328054518570212e+00 3.4699256646710147e+01 -3 -1 0
437 1 1.3153183010407663e+00 1.8576496826989113e+00 3.0178914346620367e+01 -9 -3 0
284 1 1.9972198875521947e+00 1.1304248429661817e-01 3.4894096210962203e+01 1 2 0
283 1 5.8709302527099494e-01 4.1495535763379143e-01 3.5458984752789476e+01 1 2 0
285 2 1.3000247014344857e+00 7.1795987898693414e-01 3.4794083785861140e+01 1 2 0
347 1 4.3841207419809208e-01 4.1664104821627346e-01 3.3210840822728500e+01 -6 0 0
325 1 4.9338707078036022e+00 4.4084023965215718e-01 3.2358452018014333e+01 -1 -2 0
461 1 5.5673462478745099e+00 2.0448012155348474e+00 3.0760614527269308e+01 -5 -1 0
432 2 3.8553751173013368e-01 2.0901756365137034e+00 3.0508331746695511e+01 -6 -5 0
306 2 1.5204073459901868e-01 4.4415098026500814e+00 3.5485255004789451e+01 -1 0 0
370 1 4.5049989437458265e-01 2.8746491373774958e+00 3.1087425937537109e+01 -5 -6 0
281 1 3.3736887025190305e+00 4.9498205949312818e-01 3.6812355956874022e+01 -8 7 0
463 1 8.3483916720723239e-01 1.5286872160571341e+00 3.9360111831613779e+01 -8 -1 0
291 2 7.4411152791587842e-01 2.5340085768141827e+00 3.9420254306746273e+01 -2 0 0
253 1 2.7811866063762385e+00 3.1328326294202324e+00 3.7211917962301349e+01 -6 4 0
352 1 2.8000249156079415e+00 7.0303184774508087e-01 3.8265336451444732e+01 -6 1 0
445 1 4.2702723458427077e+00 3.2858211333205807e+00 3.8660967961094094e+01 -5 -1 0
234 2 2.7625724531219835e+00 3.6842672870220228e+00 3.8000199047906065e+01 -6 1 0
166 1 5.1121624184642984e+00 4.8193193766479725e+00 3.8263910615969145e+01 -3 -6 0
157 1 2.1128291648981961e+00 3.2191987753523610e+00 3.8539807579076054e+01 -3 1 0
465 2 2.5744984257942893e+00 8.3302820611268358e-01 3.7304112564651163e+01 -9 4 0
452 1 8.2949895030467802e-01 2.6679765526208103e+00 4.0464539683822835e+01 -1 -2 0
447 2 5.0663529186770777e+00 2.9850227015717290e+00 3.9056016909955595e+01 -5 -1 0
335 1 5.5091365106142343e+00 2.5397271929539280e+00 4.0687870385311648e+01 0 -6 0
299 1 4.4407078520579892e+00 1.1204058659878393e+00 4.2029706754088679e+01 -4 -5 0
446 1 5.5260891533969332e+00 2.3874213012535659e+00 3.8396172078969272e+01 -5 -1 0
373 1 3.2420310073047252e+00 5.1693070431111682e-02 4.0539364778920195e+01 -3 -4 0
255 2 1.6525419296769044e+00 2.9211093979622769e+00 4.2041319678600836e+01 -1 4 0
422 1 2.4531409328643559e+00 2.3650041886364721e+00 4.1769243673249321e+01 -1 2 0
101 2 1.1621359226377121e+00 4.1174291910369881e-01 4.7721606401192915e+01 2 1 -1
359 1 1.1455813781591027e+00 2.3970827661828404e+00 4.2631340468527448e+01 -3 4 0
214 1 1.5137968521678320e+00 1.0595957957619113e+00 4.6936758905671844e+01 -3 3 0
208 1 4.2014037432371429e+00 4.4795312230839057e+00 4.4796553069143577e+01 0 3 0
254 1 1.2902939722477560e+00 4.2759780885250667e+00 4.3963030290268279e+01 -1 4 0
261 2 2.3982641071296262e+00 2.0839395362668909e+00 4.5780262812352738e+01 1 -2 0
387 2 2.0245620719909135e-01 2.0224444292441186e+00 4.4137272456292024e+01 5 3 0
10 2 3.0418580715180021e+00 3.8921185740672533e+00 4.7677084237750094e+01 1 0 -1
5 2 5.0513633576366939e+00 4.0924731563321237e-01 4.7781228743060957e+01 1 1 -1
403 1 3.1457273051004635e+00 9.0222631028214195e-01 4.4898821471678190e+01 -1 -2 0
241 1 2.7479849845422475e+00 2.8998077580716832e+00 4.6360424943441409e+01 -1 0 0
300 2 3.5328216547708049e+00 6.4937278908643503e-01 4.2111624856150542e+01 -4 -5 0
211 1 1.6462426819681057e+00 2.2320874486695530e+00 4.5156212939346361e+01 0 -1 0
298 1 3.4783121038419660e+00 2.6805825628663488e-01 4.3026520048126571e+01 -4 -5 0
279 2 5.0846977450552968e+00 4.1127761539903434e+00 4.4337340829330252e+01 0 -4 0
278 1 5.1240347253367107e+00 3.1739617051014259e+00 4.4734200106311455e+01 0 -4 0
6 2 5.0606330808088007e+00 8.5958777587110973e+00 1.4036858372725236e+00 1 0 0
13 3 4.9000472006250888e+00 8.2527232789705316e+00 3.1280205459208630e+00 1 0 0
19 2 5.0718019898022595e+00 6.3331610370960147e+00 3.0811182849381797e+00 1 0 0
14 3 3.1912837403953871e+00 5.7245183889955209e+00 3.1073067299736965e+00 1 0 0
109 3 1.2589000647611577e+00 8.1525380221497432e+00 3.0948876261633624e+00 2 0 0
18 2 4.9791702546579470e+00 8.6720548495849634e+00 5.1023299295569142e+00 1 0 0
20 2 3.0994211960841889e+00 7.7787103311454118e+00 3.1637450109840493e+00 1 0 0
102 2 1.2612532272960315e+00 8.6795998263575278e+00 1.2271613735142666e+00 2 0 0
115 2 1.2707527654874893e+00 6.1422282077067951e+00 3.0839294682662133e+00 2 0 0
114 2 1.1559158146142781e+00 8.4856899992560475e+00 5.0203897698821445e+00 2 0 0
9 2 3.3332489508996979e+00 5.3413567616390516e+00 1.1793649130378032e+00 1 0 0
21 2 3.1797727358206416e+00 5.2339594008244088e+00 4.9343338504244576e+00 1 0 0
30 2 5.1444794074216276e+00 8.6455581970995645e+00 8.8298003197363926e+00 1 0 0
25 3 5.2790132783493622e+00 8.1158624404631752e+00 6.9326643434797885e+00 1 0 0
32 2 3.0894336468486747e+00 7.8699211453206281e+00 7.0271586653642659e+00 1 0 0
37 3 5.0717139730478227e+00 8.2930997464973739e+00 1.0825427100461948e+01 1 0 0
31 2 5.0238627493058843e+00 6.1861732017590265e+00 6.8960450330746283e+00 1 0 0
44 2 3.1317326851739411e+00 7.9152821845376415e+00 1.0809812837857315e+01 1 0 0
26 3 3.0360744415952081e+00 5.8599825638143477e+00 6.9686515085330427e+00 1 0 0
121 3 1.3198780428135066e+00 8.2304341630474074e+00 7.0391288536300340e+00 2 0 0
43 2 5.2170964468221861e+00 6.3950310076275345e+00 1.0754337304819760e+01 1 0 0
38 3 3.1583531398323483e+00 5.8587833005035801e+00 1.0753180525136219e+01 1 0 0
139 2 1.2774287282834997e+00 6.2374027120428162e+00 1.0483416785152787e+01 2 0 0
133 3 1.2186162275114152e+00 8.2704775685783076e+00 1.0731274197292359e+01 2 0 0
126 2 1.1117470076243936e+00 8.5434098221220207e+00 8.9160474764877584e+00 2 0 0
127 2 1.2385378685035913e+00 6.1460324307502150e+00 6.9780521794265544e+00 2 0 0
33 2 3.2572060494310979e+00 5.4709444760172410e+00 8.7190918420974857e+00 1 0 0
42 2 5.1397816256946900e+00 8.8087972301273485e+00 1.2644836102705106e+01 1 0 0
158 1 1.6757897683925913e+00 9.5383025286540004e+00 1.4985466572659158e+01 0 2 0
138 2 1.3825399008184927e+00 8.8538090110713146e+00 1.2549854501936863e+01 2 0 0
213 2 1.5334830595954625e+00 8.1612166183634969e+00 1.5513500741174909e+01 -3 -4 0
428 1 2.3577409824973699e+00 7.8125932285505630e+00 1.5042368612107458e+01 1 -6 0
45 2 3.2672223581654287e+00 5.4495968477486176e+00 1.2585500960391819e+01 1 0 0
215 1 1.7995222399396857e+00 8.2086925946369753e+00 1.6458608258974227e+01 -3 -2 0
449 1 4.4736078540451087e+00 5.9177391629357414e+00 1.5900725321176019e+01 1 -4 0
371 1 3.4530700408865163e+00 6.2779872950123199e+00 1.4037539818529602e+01 6 1 0
240 2 3.7332260958679697e+00 7.0455431881186739e+00 1.4667139457474899e+01 -1 -1 0
239 1 4.1429706449438584e+00 7.6714836022279611e+00 1.4045120436443517e+01 -1 -1 0
376 1 5.5825575604168503e+00 8.0866857476224023e+00 1.6958928685099412e+01 -4 -7 0
252 2 4.6819717618286258e+00 5.0375280370993405e+00 1.6179346325421829e+01 -2 7 0
301 1 5.6631259761416830e+00 4.8960560039356471e+00 1.5910241150905865e+01 -2 3 0
361 1 6.7214454446975413e-01 5.1448180722516579e+00 2.1144014581664230e+01 -2 -1 0
486 2 5.0824936210393767e-01 9.4012607840799678e+00 2.3184010873679480e+01 0 -4 0
231 2 2.8611979317962573e+00 8.1887727674119564e+00 2.2513680231815037e+01 -2 1 0
228 2 2.7193179846698950e-01 6.7121576639856464e+00 1.7940956179281603e+01 6 1 0
491 1 2.0354206589236679e+00 8.7494501290844600e+00 2.2730615701728194e+01 -2 2 0
242 1 2.8316634588011373e+00 6.1204628010122377e+00 2.1970432013676383e+01 1 5 0
490 1 3.2146071665818980e+00 7.8932696739483674e+00 2.3408130294928991e+01 -2 2 0
427 1 3.3286245431931145e+00 8.0946837407398533e+00 1.8632744927475567e+01 -1 -6 0
351 2 4.0180660783868891e+00 9.2454945446634937e+00 2.0097433535592053e+01 0 8 0
350 1 3.5446217585156705e+00 8.7805306728877461e+00 2.0805554038511257e+01 0 8 0
258 2 2.7777137517237880e+00 5.1513648952816835e+00 2.1728765263906592e+01 1 5 0
473 1 1.2185279482815292e+00 6.4346479675357013e+00 1.7955958233639322e+01 2 6 0
313 1 3.2048899574528749e+00 6.7948596534686008e+00 1.7990943782289587e+01 -1 0 0
179 1 3.8112302487495282e+00 4.9868043453238817e+00 1.9155111994229763e+01 -2 1 0
294 2 3.1107332410891795e+00 4.9485300845009403e+00 1.8504309539754168e+01 -5 0 0
315 2 3.0563679472836816e+00 7.7157509753536466e+00 1.7825930233449245e+01 -1 0 0
175 1 3.0942181856758353e+00 8.8091532732725302e+00 2.8442135022861656e+01 2 -5 0
498 2 5.4106712959190455e+00 5.3202255896065855e+00 2.5739553862622763e+01 -3 -4 0
195 2 5.0599938372429676e-01 5.9447668271131278e+00 2.9213640845211181e+01 2 5 0
401 1 4.1904401834210008e+00 5.0470613930101802e+00 2.9570615313008574e+01 -3 0 0
193 1 6.3927147407866836e-01 5.0633793344557603e+00 2.8747863216701020e+01 2 5 0
312 2 8.9755786752816968e-01 9.0057996637079540e+00 2.6224790655024893e+01 -3 4 0
163 1 5.3937183756709679e+00 8.6951728813791114e+00 2.7891378497836971e+01 -5 -6 0
274 1 3.1164570786794821e+00 7.3983750351247739e+00 2.7985095613814984e+01 2 -3 0
480 2 7.9150250665838795e-01 5.6109591433574524e+00 2.5226046890384801e+01 -5 -1 0
369 2 3.1734960596388957e+00 6.7870486903992608e+00 2.5323295335717450e+01 -4 0 0
310 1 1.6645841959749150e+00 8.9647093456898741e+00 2.6746652535175340e+01 -3 4 0
441 2 3.2734117647566991e+00 8.2904053503969326e+00 2.7673233832057321e+01 1 1 0
479 1 1.6000918500561450e+00 6.1565046534558405e+00 2.5075152021895644e+01 -5 -1 0
250 1 3.9653495452574412e+00 6.1980810829034620e+00 2.5275155319496704e+01 2 7 0
368 1 3.5691639655592269e+00 7.6330857176958347e+00 2.5628042819090048e+01 -4 0 0
526 1 2.6052404367063403e-01 8.5291599414538144e+00 2.6771652770600852e+01 -3 1 0
485 1 7.8231617019950916e-01 9.1076250761395929e+00 2.4060800662755433e+01 0 -4 0
478 1 1.9783202667101207e-02 6.2658936435073489e+00 2.5144047939346066e+01 -5 -1 0
436 1 2.9254546301354893e+00 6.1116453934510275e+00 3.0024782683464466e+01 -7 2 0
268 1 5.2841364433696256e+00 6.5061903629091038e+00 3.5004761835231903e+01 0 -5 0
426 2 4.5723159354561271e-01 5.8627868339325024e+00 3.1946772912356789e+01 -8 0 0
210 2 3.6503231683404009e+00 5.5553570012401225e+00 3.0316466056985007e+01 -3 2 0
358 1 3.1039834754987039e+00 7.9587467547420836e+00 3.1836897730007877e+01 -5 4 0
152 1 3.7830244531962336e+00 9.2513426210800205e+00 3.4502408921045529e+01 -1 2 0
383 1 1.4249666698448056e+00 7.8550629866112995e+00 3.5349243814938923e+01 -6 -1 0
421 1 1.1691170531958508e+00 6.6317801365456504e+00 3.2111945836974336e+01 -3 -3 0
412 1 3.9215964672247923e+00 7.9735613126249358e+00 3.5487382193699013e+01 0 3 0
429 2 4.5386752271144202e+00 9.4913227624757948e+00 3.2897186195212143e+01 -5 -8 0
159 2 3.4301919514904702e+00 8.8786737362385360e+00 3.5285450356136650e+01 -1 2 0
360 2 2.3658494599305224e+00 7.6246879567387076e+00 3.1300230437668251e+01 -5 4 0
304 1 6.5110500895221923e-01 5.2996348574619683e+00 3.5445276448718865e+01 -1 0 0
440 1 1.8271984403154513e+00 8.4464379532478091e+00 3.1368682481360569e+01 0 0 0
244 1 5.2917859125548654e+00 8.8723792125060150e+00 3.2939559764773335e+01 -2 -7 0
270 2 5.0862462277994993e+00 7.0791601170939078e+00 3.5802256532599820e+01 0 -5 0
309 2 1.0772718103867434e+00 7.0245687500673011e+00 3.5707829718633207e+01 -5 5 0
206 1 2.8063986284254067e-01 5.6387200964095268e+00 3.0135265852131674e+01 5 0 0
348 2 8.2985416168615350e-02 9.7379138120035691e+00 3.2425486550103116e+01 -6 -1 0
221 1 1.9376431783319894e+00 6.6603160874156560e+00 4.1271161528694130e+01 -1 3 0
378 2 3.6278479615686585e+00 6.7887135465206123e+00 4.0433605282243434e+01 -3 -5 0
435 2 4.8489608730429767e-01 6.2603734209068485e+00 3.8669857500775755e+01 -3 0 0
280 1 3.6300155483554928e+00 7.7531471079050212e+00 4.0155555365706611e+01 -1 0 0
269 1 4.8278411909942838e+00 6.3671349274634306e+00 3.6499490561409623e+01 0 -5 0
433 1 7.4978723172411799e-01 6.3913628087194105e+00 3.9645464499731972e+01 -3 0 0
511 1 5.0016617153736096e+00 6.3177819994241036e+00 4.1733593087022285e+01 -11 -2 0
517 1 2.1626199561832138e+00 9.2446883214656488e+00 3.9566289704823085e+01 -5 -5 0
519 2 3.1065420191771365e+00 9.4679763227915998e+00 3.9627760473620334e+01 -5 -5 0
321 2 2.1697282750151106e-01 9.5283083810774283e+00 3.9396594668309092e+01 3 -1 0
168 2 4.9698393611059535e+00 5.7297418940670397e+00 3.7983605161839733e+01 -3 -6 0
222 2 9.8013172708240381e-01 6.4345704570814473e+00 4.1459996746840844e+01 -1 3 0
308 1 8.8515573719385110e-01 7.1838652671259622e+00 3.6641879747005838e+01 -5 5 0
326 1 4.0800100206571148e+00 6.3544517870050203e+00 3.9674076847426413e+01 0 2 0
434 1 9.7137751367072078e-01 5.4832093078840423e+00 3.8271931873751015e+01 -3 0 0
161 1 9.9189504547117835e-02 9.4553098602291321e+00 3.8433309517611761e+01 1 1 0
418 1 3.6595819554221825e+00 6.3606131775988688e+00 4.5355701681236198e+01 0 0 0
495 2 1.3039085104065673e+00 8.3183165263429295e+00 4.5687570307093793e+01 2 2 0
97 3 1.4303717509345344e+00 8.2619823778165422e+00 4.7701969626877506e+01 2 0 -1
442 1 1.3223098427253634e+00 7.4814090647495011e+00 4.5276401990286153e+01 -4 -2 0
381 2 3.1504807272630373e+00 5.7151732419530816e+00 4.5762948296009469e+01 -7 -1 0
402 2 5.0854597710862564e+00 8.3293276919740329e+00 4.5760235598575036e+01 1 0 0
245 1 2.4842503713997708e+00 9.1445415435646762e+00 4.4956304014021164e+01 -1 -4 0
518 1 2.0051545922920342e+00 5.4309900888563911e+00 4.4821150643297550e+01 -4 -3 0
7 2 5.1286774959304315e+00 6.1516109823652005e+00 4.7539719030072852e+01 1 0 -1
466 1 4.3657037947518935e+00 8.8460378432794720e+00 4.5262887554847957e+01 0 -1 0
1 3 5.0447362123350130e+00 8.3038767035034891e+00 4.7670605358340346e+01 1 0 -1
513 2 5.4780370663291054e+00 5.6807010247523122e+00 4.2320549533331231e+01 -11 -2 0
103 2 1.2963832766959185e+00 6.2045006612979261e+00 4.7617052463064482e+01 2 0 -1
216 2 1.2955247309422366e+00 5.2387677480448689e+00 4.4108446994127355e+01 1 2 0
2 3 3.2377494480764777e+00 5.7287644931025259e+00 4.7746995774661599e+01 1 0 -1
512 1 4.8153939288415151e+00 5.4406507929624537e+00 4.2950650312406076e+01 -11 -2 0
8 2 3.1865867961921834e+00 7.9021785830472018e+00 4.7790678359130546e+01 1 0 -1
295 1 1.4137502765121515e-01 8.8403730600427188e+00 4.5069320249599954e+01 0 -2 0
527 1 9.7407086980382207e-01 5.7429472544540952e+00 4.2096640002172791e+01 -3 5 0
444 2 3.2801212364791228e+00 9.7053735010868376e+00 4.4615701163463243e+01 -4 -2 0
107 2 1.0761849197664722e+01 1.2068560128573376e+00 1.1306342569456014e+00 1 1 0
72 2 8.8966350467160904e+00 2.9601012307193293e+00 5.1050369734815089e+00 1 1 0
99 3 1.0700738031988234e+01 3.3700366582915025e+00 1.2011430825692277e+00 1 0 0
64 3 8.7575712619979473e+00 8.8223592525546035e-01 4.8554782874346927e+00 1 1 0
60 2 8.8774736725193613e+00 2.7774440017978304e+00 1.2032773386509379e+00 1 1 0
119 2 1.0768881941916790e+01 1.1723342613051395e+00 4.8694443322100067e+00 1 1 0
118 2 1.1000312724811648e+01 3.7300604370736981e+00 3.0438668602440635e+00 1 0 0
111 3 1.0840197443177956e+01 3.2385483379112210e+00 5.0463419005259897e+00 1 0 0
52 3 8.9103053213924124e+00 8.4852486321557274e-01 1.1605882486106907e+00 1 1 0
63 3 6.9771345894792409e+00 3.3369565736259896e+00 5.1057892913653458e+00 1 0 0
71 2 7.0080426320070490e+00 1.3666100920311197e+00 4.8735081010379799e+00 1 1 0
70 2 7.0710008326751499e+00 3.8456821622634472e+00 3.1111542005002630e+00 1 0 0
59 2 6.8685734255407089e+00 1.4310714796789505e+00 1.2713168268338109e+00 1 1 0
51 3 6.7729007125507028e+00 3.3695005684766195e+00 1.3133106868169540e+00 1 0 0
65 2 8.7305999484927685e+00 3.4236058256681973e-01 3.0393054603901355e+00 1 1 0
123 3 1.0880804367812976e+01 3.4105021447976260e+00 9.0027999388297406e+00 1 0 0
84 2 8.8444645913653179e+00 2.8178264828033694e+00 8.9967265730064785e+00 1 1 0
142 2 1.0792556991135475e+01 3.7446932025497786e+00 1.0902193775709343e+01 1 0 0
76 3 8.9372313983868885e+00 9.4279013904609799e-01 8.6150858528987175e+00 1 1 0
130 2 1.0875866750160363e+01 3.6980333530577929e+00 6.9895184588416761e+00 1 0 0
131 2 1.0728948602100591e+01 1.2681762906709459e+00 8.7003554793598568e+00 1 1 0
83 2 6.9155417234499330e+00 1.2921593286637796e+00 8.8285160533676077e+00 1 1 0
82 2 6.9723505308678844e+00 3.7231733050545470e+00 6.9386965398202536e+00 1 0 0
75 3 6.9953267293905679e+00 3.3269805720352195e+00 8.9720361087343949e+00 1 0 0
94 2 7.0204477216523067e+00 3.8421177018612922e+00 1.0732079239075695e+01 1 0 0
77 2 8.8060980271343432e+00 3.5632619506253199e-01 6.8570604402773601e+00 1 1 0
89 2 8.8119705066824672e+00 6.1304053046053253e-01 1.0714034549485584e+01 1 1 0
95 2 6.9416382728549948e+00 1.3479746760416831e+00 1.2933793312526321e+01 1 1 0
143 2 1.0803532717068867e+01 1.4692746912949799e+00 1.2539693714335980e+01 1 1 0
135 3 1.0902672885947780e+01 3.3880423916938853e+00 1.2830922933467797e+01 1 0 0
307 1 9.5135491194580926e+00 2.1528959562836354e+00 1.5239528660687297e+01 0 4 0
259 1 7.6014952323863758e+00 4.3814885693596883e+00 1.4912323797601575e+01 -2 0 0
367 1 9.0648524408911939e+00 8.8546410522403796e-01 1.6034437080930534e+01 -5 1 0
88 3 8.8743831032671530e+00 1.0999641283992121e+00 1.2407077355809832e+01 1 1 0
162 2 9.4176024655806785e+00 1.1554804093669826e+00 1.5148314884707517e+01 3 2 0
96 2 8.8564574574921959e+00 3.0034959745408605e+00 1.2671324199800157e+01 1 1 0
247 1 5.7932078409498722e+00 6.1464322626592394e-01 1.4678835405819381e+01 -2 2 0
87 3 7.0369118685897121e+00 3.4865149644878852e+00 1.2901637034929317e+01 1 0 0
225 2 6.8389795378810359e+00 3.8201186265772442e+00 1.4690869222451445e+01 0 1 0
424 1 9.6176215818010053e+00 4.5061437307948387e+00 1.5312190509866925e+01 -4 -5 0
303 2 1.0752131949113984e+01 3.7455858950244809e+00 1.4715096809619032e+01 -1 3 0
156 2 8.2179620729117424e+00 3.0623823854335658e-01 1.7293968420899695e+01 -1 -2 0
236 1 1.1287548942212855e+01 3.2857311003991763e+00 1.5428808094080718e+01 -4 4 0
147 2 7.8048231134210200e+00 1.2790634877600766e+00 2.2576054274894034e+01 -3 -1 0
494 1 5.8904364928070896e+00 1.2257606550364570e+00 2.2701150844988799e+01 1 6 0
260 1 8.6565498394083118e+00 3.3677897175877711e+00 2.0528582911534908e+01 -5 2 0
256 1 1.0101322687972132e+01 2.8657197388048559e+00 2.0782848817632573e+01 2 3 0
484 1 7.5214220010532920e+00 1.7938659983729053e+00 1.8056296406296557e+01 1 -4 0
155 1 7.7416990898415881e+00 4.1560163893665875e-01 2.2081572724562967e+01 0 -2 0
501 2 1.1077871730067891e+01 3.8354938914351866e+00 2.3348318620494450e+01 2 1 0
340 1 1.0995067059671028e+01 1.1848356461841441e+00 1.9316963357679231e+01 -2 -2 0
399 2 9.2626411312284684e+00 3.1604087902991989e+00 2.1324692825984908e+01 1 1 0
407 1 8.4867318322046028e+00 1.7715245933319577e+00 2.2068607816126519e+01 -2 -2 0
342 2 1.1327912779771438e+01 2.1170747078650374e+00 1.9509912965903851e+01 -2 -2 0
237 2 7.1164279811591253e+00 2.6470521565225664e+00 1.8417094961527376e+01 -5 1 0
394 1 5.7905679937036334e+00 3.7703185487573956e+00 1.9729868037786940e+01 -5 -3 0
235 1 7.8316589400350285e+00 3.3839304207225882e+00 1.8286125324308014e+01 -5 1 0
363 2 8.8128934144386850e+00 4.7656016354495980e+00 1.8271599549307020e+01 -5 0 0
180 2 1.1006848300423608e+01 1.9468043202174183e+00 2.6548966394647994e+01 -4 -1 0
510 2 8.5808255763474737e+00 2.5542468179113413e+00 2.4900925400142491e+01 -4 1 0
476 1 1.0143016362076741e+01 1.2459454623626036e+00 2.9465521973041184e+01 -7 -7 0
153 2 5.9798471431466274e+00 1.7071524326487173e+00 2.7473772286631974e+01 0 -4 0
477 2 9.5691741812571465e+00 1.1070976696234851e+00 2.8698968411008575e+01 -7 -7 0
398 1 1.0777804359108462e+01 1.6278112523134185e+00 2.7442005549495413e+01 -1 -2 0
417 2 9.1492889853479369e+00 4.1700593277179578e+00 2.7717652782328116e+01 -5 -2 0
475 1 9.2843069709593582e+00 2.1826246037746727e-01 2.8839775028332927e+01 -7 -7 0
223 1 6.5939506261898995e+00 1.9444298955940669e+00 2.6802282759678508e+01 -1 -4 0
233 1 9.2283014671812200e+00 2.2954945107070661e+00 2.5643644329032103e+01 -6 -3 0
508 1 8.4679438046014077e+00 1.7666897545427720e+00 2.4281276951437356e+01 -4 1 0
154 1 7.3770779741207466e+00 2.0327114472629959e+00 2.9170126092006090e+01 -7 0 0
415 1 1.0054354514647484e+01 4.4563843984224185e+00 2.7921564657987357e+01 -5 -2 0
416 1 8.7751257777499045e+00 3.8505888664252468e+00 2.8552244227804270e+01 -5 -2 0
226 1 5.9821433463912985e+00 7.4539137173569270e-01 2.7550809711362078e+01 0 -5 0
409 1 1.0399590503559578e+01 3.3604897811225962e+00 2.3899652371611509e+01 -6 2 0
524 1 1.0966421215077858e+01 4.3692324448010300e+00 3.2456904289827229e+01 -6 0 0
246 2 8.5789785702524970e+00 1.6209895021349172e+00 3.3099165710164606e+01 -3 2 0
293 1 9.3976357586065244e+00 2.1075695392225464e+00 3.2916235351510586e+01 -7 3 0
333 2 8.8998074684930497e+00 4.0611152819098528e+00 3.0745365210967130e+01 -5 -1 0
188 1 7.6765034134136050e+00 2.8254565661561357e+00 3.4193693310626273e+01 1 2 0
379 1 9.2806580879099236e+00 3.7369455205153139e+00 3.1576919592565833e+01 -5 -1 0
187 1 6.3435248673037048e+00 3.5669034767380943e+00 3.4781789258023885e+01 1 2 0
207 2 7.1527384540050152e+00 2.1589799498096145e+00 3.0130849970223078e+01 -1 2 0
189 2 7.2716587555552605e+00 3.3225690509972172e+00 3.4903514396095787e+01 1 2 0
525 2 1.0764831473410482e+01 3.4583269158191996e+00 3.2799781407666480e+01 -6 0 0
419 1 8.6742000484258082e+00 9.8257920416522282e-01 3.3794159818445479e+01 -2 2 0
469 1 7.6014457600648440e+00 3.0223734292292943e+00 3.0474437817973190e+01 -1 0 0
185 1 8.3785734678092503e+00 4.6740914014633450e+00 3.5302244529660420e+01 -1 -1 0
224 1 1.1186741007016973e+01 3.6796531326187498e+00 3.3751291918988294e+01 -7 1 0
346 1 1.1361076501407155e+01 6.4294793806231632e-01 3.1714956069289752e+01 -7 0 0
190 1 1.0603712203114547e+01 4.7015051160002042e+00 3.5280086537388875e+01 -1 8 0
177 2 9.0944724928522227e+00 3.3602115713235650e+00 3.9627653427387976e+01 -1 -1 0
289 1 7.5579525772363008e+00 2.6966154863801362e+00 3.6453375111145007e+01 -1 2 0
471 2 5.7790854514570427e+00 2.4024972478302784e+00 4.1621467032643992e+01 2 0 0
341 1 9.9055020161183034e+00 2.8183971076885106e+00 3.9891491049965403e+01 -4 -2 0
186 2 1.0525958827973595e+01 2.5320553265879648e+00 3.7336068556292766e+01 -4 -2 0
408 2 7.4627368058698860e+00 2.3001732901313243e+00 3.7359021598522865e+01 -1 0 0
176 1 8.3562009092144596e+00 3.4046675906886006e+00 4.0313879663691544e+01 -1 -1 0